|===============================================================================
|
|  DFTB+ release 23.1
|
|  Copyright (C) 2006 - 2023  DFTB+ developers group
|
|===============================================================================
|
|  When publishing results obtained with DFTB+, please cite the following
|  reference:
|
|  * DFTB+, a software package for efficient approximate density functional
|    theory based atomistic simulations, J. Chem. Phys. 152, 124101 (2020).
|    [doi: 10.1063/1.5143190]
|
|  You should also cite additional publications crediting the parametrization
|  data you use. Please consult the documentation of the SK-files for the
|  references.
|
|===============================================================================

Reading input file 'dftb_in.hsd'
Parser version: 13

--------------------------------------------------------------------------------


Processed input in HSD format written to 'dftb_pin.hsd'

Starting initialization...
--------------------------------------------------------------------------------
WARNING!
-> Dipole printed for extended system : value printed is not well defined
MPI processes:               1
OpenMP threads:              1
BLACS orbital grid size:     1 x 1
BLACS atom grid size:        1 x 1
Chosen random seed:          17255684
Current stacksize:           8 [Mb] (recommended: unlimited)
WARNING!
-> Current stacksize not set to unlimited or hard limit, which might cause
   random crashes (e.g. segmentation faults). It is advised to unlimit the
   stacksize by issuing 'ulimit -s unlimited' (Linux) or setting it to the 
   hard limit by 'ulimit -s hard' (Mac) in advance.
Mode:                        Static calculation
Self consistent charges:     Yes
SCC-tolerance:                 0.100000E-02
Max. scc iterations:                   1000
Shell resolved Hubbard:      No
Spin polarisation:           Yes
Initial nr. of up electrons:   214.500000
Initial Nr. of down electrons  214.500000
Periodic boundaries:         Yes
Electronic solver:           Relatively robust
Mixer:                       Broyden mixer
Mixing parameter:                  0.200000
Maximal SCC-cycles:                    1000
Nr. of chrg. vec. in memory:           1000
tblite library version:      0.3.0
-> parametrization:          GFN1-xTB
-> repulsion:                Yes
-> dispersion:               Yes
-> halogen bonding:          Yes
-> electrostatics:           Yes
   -> isotropic:             Yes
   -> anisotropic:           No
   -> third-order:           Yes
Electronic temperature:              0.950045E-03 H      0.258520E-01 eV
Initial charges:             Set automatically (system chrg:   0.000E+00)
Included shells:            Fe:  d, s, p
                            Nb:  d, s, p
K-points and weights:           1:  0.000000  0.000000  0.000000     1.000000

K-points in absolute space:     1:  0.000000  0.000000  0.000000

Spin coupling constants:     Fe  1(d)-1(d):  -0.170000E-01
                             Fe  1(d)-2(s):  -0.300000E-02
                             Fe  1(d)-3(p):  -0.100000E-02
                             Fe  2(s)-1(d):  -0.300000E-02
                             Fe  2(s)-2(s):  -0.150000E-01
                             Fe  2(s)-3(p):  -0.120000E-01
                             Fe  3(p)-1(d):  -0.100000E-02
                             Fe  3(p)-2(s):  -0.120000E-01
                             Fe  3(p)-3(p):  -0.190000E-01
                             Nb  1(d)-1(d):  -0.170000E-01
                             Nb  1(d)-2(s):  -0.300000E-02
                             Nb  1(d)-3(p):  -0.100000E-02
                             Nb  2(s)-1(d):  -0.300000E-02
                             Nb  2(s)-2(s):  -0.150000E-01
                             Nb  2(s)-3(p):  -0.120000E-01
                             Nb  3(p)-1(d):  -0.100000E-02
                             Nb  3(p)-2(s):  -0.120000E-01
                             Nb  3(p)-3(p):  -0.190000E-01
Extra options:
                             Mulliken analysis

--------------------------------------------------------------------------------

***  Geometry step: 0

 iSCC Total electronic   Diff electronic      SCC error    
    1    0.00000000E+00    0.00000000E+00    0.24970836E+01
    2   -0.16465827E+03   -0.16465827E+03    0.29942662E+01
    3   -0.58468820E+02    0.10618945E+03    0.49080352E+01
    4    0.11375158E+04    0.11959846E+04    0.45869498E+01
    5    0.13336788E+03   -0.10041479E+04    0.43347676E+01
    6    0.20786734E+03    0.74499457E+02    0.44348233E+01
    7    0.11500844E+03   -0.92858898E+02    0.47394287E+01
    8    0.18401661E+02   -0.96606778E+02    0.19169047E+01
    9   -0.79708986E+02   -0.98110646E+02    0.27500526E+01
   10   -0.11464217E+02    0.68244769E+02    0.32298228E+01
   11   -0.47011644E+02   -0.35547427E+02    0.23514584E+01
   12   -0.62406213E+02   -0.15394569E+02    0.37538034E+01
   13   -0.39632992E+02    0.22773222E+02    0.27023059E+01
   14   -0.68222642E+02   -0.28589650E+02    0.26970811E+01
   15   -0.56969143E+02    0.11253499E+02    0.27225619E+01
   16   -0.50106665E+02    0.68624783E+01    0.40450199E+01
   17   -0.29650638E+02    0.20456027E+02    0.41824033E+01
   18   -0.28627980E+02    0.10226576E+01    0.34920017E+01
   19   -0.40775670E+02   -0.12147690E+02    0.26402075E+01
   20   -0.56490584E+02   -0.15714914E+02    0.29508063E+01
>> Charges saved for restart in charges.bin
   21   -0.76956859E+02   -0.20466274E+02    0.26663730E+01
   22   -0.99866624E+02   -0.22909766E+02    0.23860978E+01
   23   -0.97784616E+02    0.20820082E+01    0.25941866E+01
   24   -0.10237078E+03   -0.45861631E+01    0.26500297E+01
   25   -0.10270383E+03   -0.33304653E+00    0.24674178E+01
   26   -0.10445390E+03   -0.17500766E+01    0.24467574E+01
   27   -0.90677866E+02    0.13776037E+02    0.23244146E+01
   28   -0.10759458E+03   -0.16916715E+02    0.21799457E+01
   29   -0.11222300E+03   -0.46284204E+01    0.21266977E+01
   30   -0.11201845E+03    0.20455300E+00    0.21710497E+01
   31   -0.10952420E+03    0.24942511E+01    0.22845717E+01
   32   -0.10362790E+03    0.58962937E+01    0.26015358E+01
   33   -0.87641234E+02    0.15986669E+02    0.25360851E+01
   34   -0.74301163E+02    0.13340070E+02    0.25471068E+01
   35   -0.72781213E+02    0.15199504E+01    0.25466221E+01
   36   -0.73316805E+02   -0.53559266E+00    0.25344176E+01
   37   -0.74034552E+02   -0.71774676E+00    0.25930941E+01
   38   -0.79353625E+02   -0.53190729E+01    0.25241933E+01
   39   -0.91124374E+02   -0.11770749E+02    0.21121255E+01
   40   -0.11331999E+03   -0.22195616E+02    0.19088160E+01
>> Charges saved for restart in charges.bin
   41   -0.11687622E+03   -0.35562262E+01    0.19122483E+01
   42   -0.11687152E+03    0.46999757E-02    0.19288547E+01
   43   -0.11667123E+03    0.20028716E+00    0.21312072E+01
   44   -0.11336019E+03    0.33110398E+01    0.20225168E+01
   45   -0.11648718E+03   -0.31269900E+01    0.23475848E+01
   46   -0.12184784E+03   -0.53606565E+01    0.26038369E+01
   47   -0.12355018E+03   -0.17023408E+01    0.28101682E+01
   48   -0.12722013E+03   -0.36699578E+01    0.28860745E+01
   49   -0.12867034E+03   -0.14502017E+01    0.29035964E+01
   50   -0.12898700E+03   -0.31666250E+00    0.29155089E+01
   51   -0.12939618E+03   -0.40917645E+00    0.29134732E+01
   52   -0.12975959E+03   -0.36341025E+00    0.28956169E+01
   53   -0.13076705E+03   -0.10074620E+01    0.27791609E+01
   54   -0.13633483E+03   -0.55677805E+01    0.27085894E+01
   55   -0.13896846E+03   -0.26336305E+01    0.26255648E+01
   56   -0.14138260E+03   -0.24141406E+01    0.25499799E+01
   57   -0.14383743E+03   -0.24548322E+01    0.25284283E+01
   58   -0.14436172E+03   -0.52428980E+00    0.23845995E+01
   59   -0.14605946E+03   -0.16977393E+01    0.22699609E+01
   60   -0.14919403E+03   -0.31345662E+01    0.23004855E+01
>> Charges saved for restart in charges.bin
   61   -0.14967352E+03   -0.47949495E+00    0.22817831E+01
   62   -0.14984132E+03   -0.16779865E+00    0.22705152E+01
   63   -0.14972936E+03    0.11196309E+00    0.23253483E+01
   64   -0.14971118E+03    0.18177484E-01    0.23302467E+01
   65   -0.14971530E+03   -0.41187698E-02    0.23002070E+01
   66   -0.14983668E+03   -0.12138113E+00    0.21204204E+01
   67   -0.15123813E+03   -0.14014470E+01    0.19432791E+01
   68   -0.15374122E+03   -0.25030980E+01    0.16172629E+01
   69   -0.15776933E+03   -0.40281086E+01    0.16605736E+01
   70   -0.15942806E+03   -0.16587272E+01    0.16659405E+01
   71   -0.15940793E+03    0.20132514E-01    0.16950636E+01
   72   -0.15951512E+03   -0.10718801E+00    0.17107181E+01
   73   -0.15944025E+03    0.74866815E-01    0.17494455E+01
   74   -0.15919056E+03    0.24969170E+00    0.17607160E+01
   75   -0.15890114E+03    0.28941398E+00    0.17123780E+01
   76   -0.15949662E+03   -0.59548019E+00    0.16010205E+01
   77   -0.16038396E+03   -0.88733946E+00    0.13274596E+01
   78   -0.16118707E+03   -0.80310953E+00    0.13274124E+01
   79   -0.16121421E+03   -0.27142843E-01    0.14637860E+01
   80   -0.16072730E+03    0.48691874E+00    0.14973664E+01
>> Charges saved for restart in charges.bin
   81   -0.16056658E+03    0.16071542E+00    0.13578827E+01
   82   -0.16153661E+03   -0.97002757E+00    0.19927387E+01
   83   -0.16159027E+03   -0.53665921E-01    0.23215313E+01
   84   -0.16111887E+03    0.47140792E+00    0.23053245E+01
   85   -0.16108419E+03    0.34678640E-01    0.22819418E+01
   86   -0.16108861E+03   -0.44245200E-02    0.14560538E+01
   87   -0.16263274E+03   -0.15441301E+01    0.10232575E+01
   88   -0.16111636E+03    0.15163782E+01    0.10694935E+01
   89   -0.15776028E+03    0.33560836E+01    0.10395967E+01
   90   -0.15722453E+03    0.53574577E+00    0.11403106E+01
   91   -0.15638846E+03    0.83607497E+00    0.78777210E+00
   92   -0.16106753E+03   -0.46790738E+01    0.13162770E+01
   93   -0.16090150E+03    0.16603686E+00    0.10693237E+01
   94   -0.16197728E+03   -0.10757800E+01    0.10251679E+01
   95   -0.16235382E+03   -0.37653834E+00    0.93511665E+00
   96   -0.16296512E+03   -0.61130523E+00    0.14517528E+01
   97   -0.16256819E+03    0.39693517E+00    0.12524455E+01
   98   -0.16382220E+03   -0.12540145E+01    0.15136272E+01
   99   -0.16313610E+03    0.68610074E+00    0.63249481E+00
  100   -0.16415713E+03   -0.10210299E+01    0.71650967E+00
>> Charges saved for restart in charges.bin
  101   -0.16405217E+03    0.10496284E+00    0.61308702E+00
  102   -0.16418841E+03   -0.13624793E+00    0.39312444E+00
  103   -0.16438373E+03   -0.19531887E+00    0.37688253E+00
  104   -0.16422069E+03    0.16303976E+00    0.35106064E+00
  105   -0.16448647E+03   -0.26577509E+00    0.27446822E+00
  106   -0.16463108E+03   -0.14460691E+00    0.28161528E+00
  107   -0.16462783E+03    0.32474208E-02    0.28360132E+00
  108   -0.16462699E+03    0.83757083E-03    0.28596794E+00
  109   -0.16461573E+03    0.11257529E-01    0.19951275E+00
  110   -0.16469727E+03   -0.81536868E-01    0.23972568E+00
  111   -0.16473105E+03   -0.33783243E-01    0.24470956E+00
  112   -0.16473572E+03   -0.46633273E-02    0.27498469E+00
  113   -0.16468410E+03    0.51614844E-01    0.37642694E+00
  114   -0.16461207E+03    0.72028868E-01    0.36133516E+00
  115   -0.16457642E+03    0.35650794E-01    0.37052081E+00
  116   -0.16456391E+03    0.12509213E-01    0.35633182E+00
  117   -0.16459031E+03   -0.26393241E-01    0.32178979E+00
  118   -0.16462462E+03   -0.34316518E-01    0.33174037E+00
  119   -0.16461810E+03    0.65206531E-02    0.33042722E+00
  120   -0.16461902E+03   -0.92305987E-03    0.33417159E+00
>> Charges saved for restart in charges.bin
  121   -0.16459265E+03    0.26373666E-01    0.34547914E+00
  122   -0.16459794E+03   -0.52871448E-02    0.32608123E+00
  123   -0.16461638E+03   -0.18437621E-01    0.29419349E+00
  124   -0.16462339E+03   -0.70155628E-02    0.30454283E+00
  125   -0.16461343E+03    0.99612242E-02    0.31713045E+00
  126   -0.16461277E+03    0.66116662E-03    0.22856653E+00
  127   -0.16474479E+03   -0.13202074E+00    0.20826661E+00
  128   -0.16478324E+03   -0.38451514E-01    0.19903332E+00
  129   -0.16481228E+03   -0.29037174E-01    0.20272694E+00
  130   -0.16482133E+03   -0.90520987E-02    0.20113903E+00
  131   -0.16483351E+03   -0.12176958E-01    0.19707334E+00
  132   -0.16483743E+03   -0.39259047E-02    0.19261822E+00
  133   -0.16484010E+03   -0.26704570E-02    0.18534348E+00
  134   -0.16484544E+03   -0.53320959E-02    0.17807846E+00
  135   -0.16484989E+03   -0.44495820E-02    0.17138075E+00
  136   -0.16485067E+03   -0.78879647E-03    0.16342151E+00
  137   -0.16485098E+03   -0.30628594E-03    0.16047900E+00
  138   -0.16485114E+03   -0.15758583E-03    0.15796732E+00
  139   -0.16485150E+03   -0.36020357E-03    0.15014999E+00
  140   -0.16485244E+03   -0.94210161E-03    0.13917603E+00
>> Charges saved for restart in charges.bin
  141   -0.16485276E+03   -0.31869813E-03    0.12636999E+00
  142   -0.16485282E+03   -0.59779606E-04    0.10839722E+00
  143   -0.16485374E+03   -0.92445047E-03    0.91302643E-01
  144   -0.16485488E+03   -0.11325417E-02    0.73135488E-01
  145   -0.16485653E+03   -0.16580637E-02    0.55685443E-01
  146   -0.16485798E+03   -0.14428754E-02    0.40101888E-01
  147   -0.16485888E+03   -0.90482233E-03    0.27270196E-01
  148   -0.16485937E+03   -0.48674510E-03    0.18236886E-01
  149   -0.16485958E+03   -0.21304414E-03    0.11540553E-01
  150   -0.16485973E+03   -0.14492970E-03    0.87628879E-02
  151   -0.16485976E+03   -0.36424895E-04    0.62896102E-02
  152   -0.16485980E+03   -0.37310467E-04    0.45145879E-02
  153   -0.16485981E+03   -0.13843143E-04    0.29471065E-02
  154   -0.16485983E+03   -0.13953492E-04    0.19059887E-02
  155   -0.16485983E+03   -0.33770690E-05    0.15396219E-02
  156   -0.16485984E+03   -0.52215134E-05    0.10963950E-02
  157   -0.16485984E+03   -0.10153610E-05    0.89556746E-03
>> Charges saved for restart in charges.bin

Total Energy:                     -164.8598380858 H        -4486.0644 eV
Extrapolated to 0K:               -164.8607846218 H        -4486.0902 eV
Total Mermin free energy:         -164.8617311578 H        -4486.1160 eV
Force related energy:             -164.8617311578 H        -4486.1160 eV


--------------------------------------------------------------------------------
DFTB+ running times                          cpu [s]             wall clock [s]
--------------------------------------------------------------------------------
Pre-SCC initialisation                 +       1.41 (  1.3%)       1.41 (  1.3%)
SCC                                    +     103.01 ( 98.6%)     104.52 ( 98.7%)
--------------------------------------------------------------------------------
Missing                                +       0.00 (  0.0%)       0.01 (  0.0%)
Total                                  =     104.43 (100.0%)     105.94 (100.0%)
--------------------------------------------------------------------------------
