|===============================================================================
|
|  DFTB+ release 23.1
|
|  Copyright (C) 2006 - 2023  DFTB+ developers group
|
|===============================================================================
|
|  When publishing results obtained with DFTB+, please cite the following
|  reference:
|
|  * DFTB+, a software package for efficient approximate density functional
|    theory based atomistic simulations, J. Chem. Phys. 152, 124101 (2020).
|    [doi: 10.1063/1.5143190]
|
|  You should also cite additional publications crediting the parametrization
|  data you use. Please consult the documentation of the SK-files for the
|  references.
|
|===============================================================================

Reading input file 'dftb_in.hsd'
Parser version: 13

--------------------------------------------------------------------------------


Processed input in HSD format written to 'dftb_pin.hsd'

Starting initialization...
--------------------------------------------------------------------------------
WARNING!
-> Dipole printed for extended system : value printed is not well defined
MPI processes:               1
OpenMP threads:              1
BLACS orbital grid size:     1 x 1
BLACS atom grid size:        1 x 1
Chosen random seed:          17723589
Current stacksize:           8 [Mb] (recommended: unlimited)
WARNING!
-> Current stacksize not set to unlimited or hard limit, which might cause
   random crashes (e.g. segmentation faults). It is advised to unlimit the
   stacksize by issuing 'ulimit -s unlimited' (Linux) or setting it to the 
   hard limit by 'ulimit -s hard' (Mac) in advance.
Mode:                        Static calculation
Self consistent charges:     Yes
SCC-tolerance:                 0.100000E-02
Max. scc iterations:                   1000
Shell resolved Hubbard:      No
Spin polarisation:           Yes
Initial nr. of up electrons:   214.500000
Initial Nr. of down electrons  214.500000
Periodic boundaries:         Yes
Electronic solver:           Relatively robust
Mixer:                       Broyden mixer
Mixing parameter:                  0.200000
Maximal SCC-cycles:                    1000
Nr. of chrg. vec. in memory:           1000
tblite library version:      0.3.0
-> parametrization:          GFN1-xTB
-> repulsion:                Yes
-> dispersion:               Yes
-> halogen bonding:          Yes
-> electrostatics:           Yes
   -> isotropic:             Yes
   -> anisotropic:           No
   -> third-order:           Yes
Electronic temperature:              0.950045E-03 H      0.258520E-01 eV
Initial charges:             Set automatically (system chrg:   0.000E+00)
Included shells:            Fe:  d, s, p
                            Nb:  d, s, p
K-points and weights:           1:  0.000000  0.000000  0.000000     1.000000

K-points in absolute space:     1:  0.000000  0.000000  0.000000

Spin coupling constants:     Fe  1(d)-1(d):  -0.170000E-01
                             Fe  1(d)-2(s):  -0.300000E-02
                             Fe  1(d)-3(p):  -0.100000E-02
                             Fe  2(s)-1(d):  -0.300000E-02
                             Fe  2(s)-2(s):  -0.150000E-01
                             Fe  2(s)-3(p):  -0.120000E-01
                             Fe  3(p)-1(d):  -0.100000E-02
                             Fe  3(p)-2(s):  -0.120000E-01
                             Fe  3(p)-3(p):  -0.190000E-01
                             Nb  1(d)-1(d):  -0.170000E-01
                             Nb  1(d)-2(s):  -0.300000E-02
                             Nb  1(d)-3(p):  -0.100000E-02
                             Nb  2(s)-1(d):  -0.300000E-02
                             Nb  2(s)-2(s):  -0.150000E-01
                             Nb  2(s)-3(p):  -0.120000E-01
                             Nb  3(p)-1(d):  -0.100000E-02
                             Nb  3(p)-2(s):  -0.120000E-01
                             Nb  3(p)-3(p):  -0.190000E-01
Extra options:
                             Mulliken analysis

--------------------------------------------------------------------------------

***  Geometry step: 0

 iSCC Total electronic   Diff electronic      SCC error    
    1    0.00000000E+00    0.00000000E+00    0.24641772E+01
    2   -0.16465581E+03   -0.16465581E+03    0.30078423E+01
    3   -0.88583297E+01    0.15579748E+03    0.49118210E+01
    4    0.12411178E+04    0.12499761E+04    0.39720199E+01
    5    0.17847678E+03   -0.10626410E+04    0.44303325E+01
    6    0.26999617E+03    0.91519389E+02    0.30951228E+01
    7    0.51375933E+02   -0.21862024E+03    0.46696697E+01
    8    0.11630990E+03    0.64933971E+02    0.30350260E+01
    9   -0.60452041E+02   -0.17676195E+03    0.26909626E+01
   10   -0.75454268E+02   -0.15002227E+02    0.45810840E+01
   11   -0.99419315E+01    0.65512337E+02    0.28799626E+01
   12   -0.41147431E+02   -0.31205499E+02    0.47770729E+01
   13    0.38450216E+02    0.79597647E+02    0.49285115E+01
   14    0.19563579E+02   -0.18886638E+02    0.48512087E+01
   15    0.34693424E+02    0.15129846E+02    0.28733216E+01
   16   -0.26163278E+02   -0.60856702E+02    0.28052340E+01
   17   -0.26322911E+02   -0.15963321E+00    0.28019099E+01
   18   -0.46360372E+02   -0.20037461E+02    0.28345154E+01
   19   -0.58711147E+02   -0.12350774E+02    0.26833530E+01
   20   -0.89770943E+02   -0.31059797E+02    0.20983804E+01
>> Charges saved for restart in charges.bin
   21   -0.10485662E+03   -0.15085672E+02    0.21378568E+01
   22   -0.10592758E+03   -0.10709661E+01    0.22042260E+01
   23   -0.10908106E+03   -0.31534829E+01    0.27097699E+01
   24   -0.10636347E+03    0.27175916E+01    0.28798233E+01
   25   -0.96579208E+02    0.97842647E+01    0.22384172E+01
   26   -0.10789776E+03   -0.11318556E+02    0.22603287E+01
   27   -0.10323239E+03    0.46653781E+01    0.32326034E+01
   28   -0.36632649E+02    0.66599737E+02    0.32166922E+01
   29   -0.36231109E+02    0.40153946E+00    0.31852550E+01
   30   -0.39087592E+02   -0.28564827E+01    0.30680599E+01
   31   -0.43658509E+02   -0.45709169E+01    0.29834398E+01
   32   -0.49978323E+02   -0.63198145E+01    0.27895030E+01
   33   -0.65327450E+02   -0.15349127E+02    0.26156770E+01
   34   -0.81735548E+02   -0.16408097E+02    0.22601627E+01
   35   -0.10805937E+03   -0.26323822E+02    0.26013293E+01
   36   -0.13811036E+03   -0.30050993E+02    0.28172508E+01
   37   -0.13942422E+03   -0.13138544E+01    0.27736137E+01
   38   -0.13983995E+03   -0.41572805E+00    0.27624171E+01
   39   -0.13992039E+03   -0.80447280E-01    0.27766076E+01
   40   -0.14001499E+03   -0.94599664E-01    0.28728661E+01
>> Charges saved for restart in charges.bin
   41   -0.14077932E+03   -0.76432702E+00    0.29341682E+01
   42   -0.14135387E+03   -0.57455169E+00    0.29475409E+01
   43   -0.14173039E+03   -0.37652340E+00    0.29431083E+01
   44   -0.14199631E+03   -0.26591930E+00    0.29432021E+01
   45   -0.14199510E+03    0.12091326E-02    0.29641965E+01
   46   -0.14180471E+03    0.19039747E+00    0.29317233E+01
   47   -0.14223106E+03   -0.42635665E+00    0.27925696E+01
   48   -0.14445799E+03   -0.22269278E+01    0.25929620E+01
   49   -0.14739702E+03   -0.29390326E+01    0.26157255E+01
   50   -0.14706498E+03    0.33203952E+00    0.26095237E+01
   51   -0.14672702E+03    0.33796347E+00    0.25730491E+01
   52   -0.14760742E+03   -0.88039744E+00    0.21962041E+01
   53   -0.15465805E+03   -0.70506303E+01    0.21245752E+01
   54   -0.15895217E+03   -0.42941188E+01    0.23747418E+01
   55   -0.15725640E+03    0.16957686E+01    0.24347710E+01
   56   -0.15709406E+03    0.16234252E+00    0.24560631E+01
   57   -0.15659073E+03    0.50332174E+00    0.24713764E+01
   58   -0.15654729E+03    0.43447808E-01    0.25557019E+01
   59   -0.15512211E+03    0.14251732E+01    0.25769532E+01
   60   -0.15473531E+03    0.38680376E+00    0.24309599E+01
>> Charges saved for restart in charges.bin
   61   -0.15650022E+03   -0.17649110E+01    0.16270989E+01
   62   -0.16104718E+03   -0.45469643E+01    0.16348671E+01
   63   -0.16185629E+03   -0.80910413E+00    0.15958393E+01
   64   -0.16278183E+03   -0.92554201E+00    0.15677484E+01
   65   -0.16293256E+03   -0.15072494E+00    0.15691853E+01
   66   -0.16291866E+03    0.13892813E-01    0.15811832E+01
   67   -0.16264765E+03    0.27101135E+00    0.15828822E+01
   68   -0.16277270E+03   -0.12504725E+00    0.15907599E+01
   69   -0.16298876E+03   -0.21606249E+00    0.15956988E+01
   70   -0.16307390E+03   -0.85141930E-01    0.15964376E+01
   71   -0.16041908E+03    0.26548235E+01    0.15956778E+01
   72   -0.16032372E+03    0.95361249E-01    0.15918175E+01
   73   -0.16158893E+03   -0.12652128E+01    0.15872943E+01
   74   -0.16200142E+03   -0.41248991E+00    0.15576635E+01
   75   -0.16219823E+03   -0.19680967E+00    0.15075533E+01
   76   -0.16225421E+03   -0.55974058E-01    0.14444627E+01
   77   -0.16224322E+03    0.10981701E-01    0.13310558E+01
   78   -0.16220065E+03    0.42577849E-01    0.13292951E+01
   79   -0.16223362E+03   -0.32976364E-01    0.13316421E+01
   80   -0.16218344E+03    0.50181844E-01    0.13324113E+01
>> Charges saved for restart in charges.bin
   81   -0.16240005E+03   -0.21661310E+00    0.13323583E+01
   82   -0.16228617E+03    0.11388320E+00    0.13322756E+01
   83   -0.16183773E+03    0.44843794E+00    0.13324031E+01
   84   -0.16177439E+03    0.63340891E-01    0.13316610E+01
   85   -0.16183997E+03   -0.65580562E-01    0.13281310E+01
   86   -0.16173107E+03    0.10890069E+00    0.13179700E+01
   87   -0.16142175E+03    0.30931723E+00    0.13080792E+01
   88   -0.16133175E+03    0.90006841E-01    0.13084090E+01
   89   -0.16125723E+03    0.74519630E-01    0.12722719E+01
   90   -0.16162717E+03   -0.36993954E+00    0.12614530E+01
   91   -0.16197311E+03   -0.34594415E+00    0.12505315E+01
   92   -0.16203944E+03   -0.66327830E-01    0.11653454E+01
   93   -0.16313219E+03   -0.10927466E+01    0.99696921E+00
   94   -0.16239781E+03    0.73437213E+00    0.99625595E+00
   95   -0.16238785E+03    0.99677551E-02    0.10001462E+01
   96   -0.16251960E+03   -0.13175281E+00    0.96311249E+00
   97   -0.16327238E+03   -0.75277825E+00    0.87419304E+00
   98   -0.16286719E+03    0.40518192E+00    0.82005016E+00
   99   -0.16248007E+03    0.38712118E+00    0.83294825E+00
  100   -0.16216003E+03    0.32003947E+00    0.84525599E+00
>> Charges saved for restart in charges.bin
  101   -0.16196938E+03    0.19065607E+00    0.87156668E+00
  102   -0.16165178E+03    0.31759334E+00    0.87618083E+00
  103   -0.16144162E+03    0.21016653E+00    0.88867365E+00
  104   -0.16171013E+03   -0.26850689E+00    0.73071217E+00
  105   -0.16241922E+03   -0.70909753E+00    0.68326967E+00
  106   -0.16282820E+03   -0.40898173E+00    0.68060468E+00
  107   -0.16361279E+03   -0.78458343E+00    0.68576877E+00
  108   -0.16426885E+03   -0.65605877E+00    0.64964214E+00
  109   -0.16462655E+03   -0.35770731E+00    0.61409075E+00
  110   -0.16469156E+03   -0.65006637E-01    0.45254668E+00
  111   -0.16488781E+03   -0.19624898E+00    0.36569186E+00
  112   -0.16492312E+03   -0.35311932E-01    0.29332175E+00
  113   -0.16498051E+03   -0.57390527E-01    0.18584211E+00
  114   -0.16499368E+03   -0.13164619E-01    0.11846361E+00
  115   -0.16499532E+03   -0.16435822E-02    0.10187505E+00
  116   -0.16498429E+03    0.11029476E-01    0.91479122E-01
  117   -0.16499893E+03   -0.14641158E-01    0.72773836E-01
  118   -0.16502844E+03   -0.29506989E-01    0.56843073E-01
  119   -0.16503338E+03   -0.49428625E-02    0.30126860E-01
  120   -0.16503884E+03   -0.54609541E-02    0.32166539E-01
>> Charges saved for restart in charges.bin
  121   -0.16504049E+03   -0.16470405E-02    0.23187932E-01
  122   -0.16504112E+03   -0.63098093E-03    0.19247833E-01
  123   -0.16504173E+03   -0.60953965E-03    0.20775389E-01
  124   -0.16504200E+03   -0.27094482E-03    0.20125290E-01
  125   -0.16504215E+03   -0.15191545E-03    0.18538452E-01
  126   -0.16504217E+03   -0.13074698E-04    0.14921354E-01
  127   -0.16504224E+03   -0.72903970E-04    0.11678987E-01
  128   -0.16504228E+03   -0.36951051E-04    0.72755367E-02
  129   -0.16504241E+03   -0.13123004E-03    0.37409748E-02
  130   -0.16504247E+03   -0.63120404E-04    0.19926849E-02
  131   -0.16504248E+03   -0.80701692E-05    0.18299721E-02
  132   -0.16504248E+03    0.68212819E-06    0.13958159E-02
  133   -0.16504248E+03   -0.32380640E-05    0.10378993E-02
  134   -0.16504248E+03   -0.32466611E-05    0.64525143E-03
>> Charges saved for restart in charges.bin

Total Energy:                     -165.0424864686 H        -4491.0346 eV
Extrapolated to 0K:               -165.0433231185 H        -4491.0573 eV
Total Mermin free energy:         -165.0441597685 H        -4491.0801 eV
Force related energy:             -165.0441597685 H        -4491.0801 eV


--------------------------------------------------------------------------------
DFTB+ running times                          cpu [s]             wall clock [s]
--------------------------------------------------------------------------------
Pre-SCC initialisation                 +       1.41 (  1.6%)       1.41 (  1.6%)
SCC                                    +      86.74 ( 98.4%)      88.11 ( 98.4%)
--------------------------------------------------------------------------------
Missing                                +       0.00 (  0.0%)       0.01 (  0.0%)
Total                                  =      88.15 (100.0%)      89.53 (100.0%)
--------------------------------------------------------------------------------
