LAMMPS Description

2532  atoms
2190  bonds
3288  angles
4194  dihedrals
0  impropers

85  atom types
929  bond types
5316  angle types
653  dihedral types
38  improper types

0.0   102.00 xlo xhi
0.0   102.07 ylo yhi
0.0   102.00 zlo zhi

Masses

1 12.01  # c
2 12.01  # c1
3 12.01  # c2
4 12.01  # c3
5 12.01  # ca
6 12.01  # cp
7 12.01  # cq
8 12.01  # cc
9 12.01  # cd
10 12.01  # ce
11 12.01  # cf
12 12.01  # cg
13 12.01  # ch
14 12.01  # cx
15 12.01  # cy
16 12.01  # cu
17 12.01  # cv
18 12.01  # cz
19 1.008  # h1
20 1.008  # h2
21 1.008  # h3
22 1.008  # h4
23 1.008  # h5
24 1.008  # ha
25 1.008  # hc
26 1.008  # hn
27 1.008  # ho
28 1.008  # hp
29 1.008  # hs
30 1.008  # hw
31 1.008  # hx
32 19.00  # f
33 35.45  # cl
34 79.90  # br
35 126.9  # i
36 14.01  # n
37 14.01  # n1
38 14.01  # n2
39 14.01  # n3
40 14.01  # n4
41 14.01  # na
42 14.01  # nb
43 14.01  # nc
44 14.01  # nd
45 14.01  # ne
46 14.01  # nf
47 14.01  # nh
48 14.01  # no
49 14.01  # ni
50 14.01  # nj
51 14.01  # nk
52 14.01  # nl
53 14.01  # nm
54 14.01  # nn
55 14.01  # np
56 14.01  # nq
57 16.00  # o
58 16.00  # oh
59 16.00  # os
60 16.00  # op
61 16.00  # oq
62 16.00  # ow
63 30.97  # p2
64 30.97  # p3
65 30.97  # p4
66 30.97  # p5
67 30.97  # pb
68 30.97  # pc
69 30.97  # pd
70 30.97  # pe
71 30.97  # pf
72 30.97  # px
73 30.97  # py
74 32.06  # s
75 32.06  # s2
76 32.06  # s4
77 32.06  # s6
78 32.06  # sh
79 32.06  # ss
80 32.06  # sp
81 32.06  # sq
82 32.06  # sx
83 32.06  # sy
84 15.9994  # O
85 1.008  # H

Atoms

1 1 4 0.459642 30.449 46.670 86.525
2 1 4 0.409096 30.173 47.178 85.144
3 1 32 -0.164723 31.759 46.642 86.742
4 1 32 -0.164723 29.954 45.444 86.653
5 1 32 -0.164723 29.884 47.470 87.422
6 1 32 -0.188955 30.678 48.402 85.025
7 1 32 -0.188955 30.750 46.373 84.259
8 1 4 0.387411 28.699 47.224 84.889
9 1 4 0.384646 28.389 48.020 83.649
10 1 32 -0.192108 28.236 45.985 84.750
11 1 32 -0.192108 28.108 47.800 85.928
12 1 32 -0.192251 29.440 48.777 83.355
13 1 32 -0.192251 27.338 48.796 83.893
14 1 4 0.384511 28.068 47.138 82.471
15 1 4 0.384508 27.864 47.972 81.227
16 1 32 -0.192254 26.956 46.459 82.733
17 1 32 -0.192254 29.071 46.288 82.269
18 1 32 -0.192254 29.053 48.215 80.691
19 1 32 -0.192254 27.293 49.121 81.573
20 1 4 0.384508 26.985 47.277 80.208
21 1 4 0.384508 27.162 47.871 78.823
22 1 32 -0.192254 27.306 45.988 80.165
23 1 32 -0.192254 25.715 47.406 80.580
24 1 32 -0.192254 27.200 49.194 78.936
25 1 32 -0.192254 28.320 47.438 78.335
26 1 4 0.384507 26.039 47.487 77.870
27 1 4 0.384496 26.336 47.923 76.446
28 1 32 -0.192254 25.882 46.167 77.898
29 1 32 -0.192254 24.916 48.073 78.272
30 1 32 -0.192254 26.532 49.236 76.451
31 1 32 -0.192254 27.449 47.315 76.046
32 1 4 0.384184 25.213 47.593 75.464
33 1 4 0.380123 25.482 48.168 74.079
34 1 32 -0.192267 25.094 46.273 75.367
35 1 32 -0.192267 24.073 48.108 75.915
36 1 32 -0.192612 25.187 49.462 74.103
37 1 32 -0.192612 26.775 48.016 73.815
38 1 4 0.354487 24.685 47.489 72.956
39 1 4 0.380123 23.893 48.469 72.065
40 1 59 -0.266773 23.828 46.548 73.516
41 1 32 -0.197588 25.556 46.849 72.185
42 1 32 -0.192612 24.387 49.688 72.248
43 1 32 -0.192612 22.619 48.451 72.448
44 1 4 0.384184 23.967 48.148 70.556
45 1 4 0.426964 24.256 45.288 73.116
46 1 32 -0.168587 25.522 45.127 73.480
47 1 32 -0.168587 24.164 45.203 71.796
48 1 4 0.401351 23.434 44.192 73.724
49 1 4 0.457691 23.936 43.878 75.102
50 1 32 -0.164877 25.202 43.477 75.041
51 1 32 -0.164877 23.851 44.966 75.861
52 1 32 -0.164877 23.200 42.907 75.632
53 1 59 -0.251081 23.526 43.096 72.863
54 1 4 0.551974 23.548 41.812 73.408
55 1 32 -0.157269 24.329 41.808 74.484
56 1 32 -0.157269 24.034 40.972 72.500
57 1 4 0.667787 22.176 41.359 73.789
58 1 32 -0.085106 21.319 41.707 72.836
59 1 32 -0.085106 21.825 41.938 74.934
60 1 77 -0.00053 22.163 39.602 73.997
61 1 57 -0.46492 22.491 38.988 72.774
62 1 57 -0.46492 23.114 39.249 74.967
63 1 58 -0.051299 20.699 39.092 74.475
64 1 32 -0.191296 22.167 44.583 73.805
65 1 4 0.384496 23.011 48.986 69.667
66 1 32 -0.192267 23.690 46.859 70.386
67 1 32 -0.192267 25.215 48.384 70.162
68 1 32 -0.192254 23.267 50.268 69.889
69 1 32 -0.192254 21.760 48.721 70.031
70 1 4 0.384507 23.161 48.716 68.150
71 1 4 0.384508 22.201 49.533 67.244
72 1 32 -0.192254 22.959 47.423 67.932
73 1 32 -0.192254 24.408 49.031 67.811
74 1 32 -0.192254 22.519 50.813 67.367
75 1 32 -0.192254 20.954 49.353 67.675
76 1 4 0.384508 22.263 49.155 65.738
77 1 4 0.384508 21.424 50.061 64.793
78 1 32 -0.192254 21.843 47.904 65.601
79 1 32 -0.192254 23.532 49.240 65.353
80 1 32 -0.192254 21.962 51.275 64.815
81 1 32 -0.192254 20.181 50.131 65.265
82 1 4 0.384508 21.359 49.591 63.308
83 1 4 0.384508 20.547 50.516 62.351
84 1 32 -0.192254 22.603 49.494 62.846
85 1 32 -0.192254 20.791 48.390 63.283
86 1 32 -0.192254 19.272 50.445 62.710
87 1 32 -0.192254 20.980 51.761 62.520
88 1 4 0.384507 20.639 50.180 60.825
89 1 4 0.384496 19.286 50.220 60.052
90 1 32 -0.192254 21.158 48.961 60.697
91 1 32 -0.192254 21.461 51.063 60.266
92 1 32 -0.192254 18.394 50.697 60.911
93 1 32 -0.192254 18.951 48.972 59.741
94 1 4 0.384184 19.184 51.097 58.762
95 1 4 0.380123 19.380 50.404 57.383
96 1 32 -0.192267 17.984 51.662 58.760
97 1 32 -0.192267 20.110 52.044 58.869
98 1 32 -0.192612 20.385 51.016 56.774
99 1 32 -0.192612 19.713 49.137 57.605
100 1 4 0.354487 18.157 50.425 56.402
101 1 4 0.380123 18.400 51.111 55.015
102 1 59 -0.266773 17.821 49.099 56.154
103 1 32 -0.197588 17.154 51.051 57.006
104 1 32 -0.192612 18.722 52.379 55.235
105 1 32 -0.192612 19.414 50.495 54.420
106 1 4 0.384184 17.177 51.094 54.033
107 1 4 0.426964 16.500 48.827 56.474
108 1 32 -0.168587 16.132 49.585 57.499
109 1 32 -0.168587 15.724 49.088 55.430
110 1 4 0.401351 16.365 47.381 56.841
111 1 4 0.457691 17.297 47.049 57.963
112 1 32 -0.164877 18.553 47.278 57.598
113 1 32 -0.164877 16.998 47.803 59.015
114 1 32 -0.164877 17.164 45.767 58.287
115 1 59 -0.251081 16.656 46.582 55.739
116 1 4 0.551974 15.857 45.443 55.770
117 1 32 -0.157269 15.155 45.448 56.895
118 1 32 -0.157269 15.029 45.454 54.729
119 1 4 0.667787 16.693 44.205 55.711
120 1 32 -0.085106 17.409 44.208 54.590
121 1 32 -0.085106 17.514 44.183 56.758
122 1 77 -0.00053 15.665 42.770 55.757
123 1 57 -0.46492 14.807 42.765 54.646
124 1 57 -0.46492 16.482 41.620 55.721
125 1 58 -0.051299 14.784 42.744 57.117
126 1 32 -0.191296 15.111 47.146 57.228
127 1 4 0.384496 17.440 51.656 52.591
128 1 32 -0.192267 16.748 49.841 53.918
129 1 32 -0.192267 16.217 51.833 54.575
130 1 32 -0.192254 17.815 52.924 52.713
131 1 32 -0.192254 18.430 50.958 52.041
132 1 4 0.384507 16.215 51.616 51.613
133 1 4 0.384508 16.428 52.278 50.208
134 1 32 -0.192254 15.868 50.345 51.433
135 1 32 -0.192254 15.215 52.256 52.208
136 1 32 -0.192254 16.476 53.593 50.394
137 1 32 -0.192254 17.593 51.864 49.722
138 1 4 0.384508 15.320 51.977 49.144
139 1 4 0.384508 15.281 52.916 47.896
140 1 32 -0.192254 15.489 50.727 48.723
141 1 32 -0.192254 14.145 52.075 49.752
142 1 32 -0.192254 16.529 53.224 47.566
143 1 32 -0.192254 14.635 54.027 48.237
144 1 4 0.384508 14.596 52.313 46.627
145 1 4 0.384508 14.179 53.332 45.519
146 1 32 -0.192254 13.510 51.648 47.006
147 1 32 -0.192254 15.456 51.465 46.078
148 1 32 -0.192254 15.227 54.101 45.247
149 1 32 -0.192254 13.193 54.088 45.990
150 1 4 0.384507 13.705 52.686 44.176
151 1 4 0.384496 13.243 53.681 43.067
152 1 32 -0.192254 12.696 51.860 44.435
153 1 32 -0.192254 14.721 51.992 43.681
154 1 32 -0.192254 14.280 54.454 42.759
155 1 32 -0.192254 12.266 54.438 43.557
156 1 4 0.384184 12.738 53.008 41.751
157 1 4 0.380123 12.308 53.981 40.618
158 1 32 -0.192267 13.703 52.223 41.288
159 1 32 -0.192267 11.681 52.263 42.059
160 1 32 -0.192612 11.284 54.700 41.064
161 1 32 -0.192612 13.327 54.790 40.348
162 1 4 0.354487 11.876 53.281 39.302
163 1 4 0.380123 10.938 54.121 38.399
164 1 59 -0.266773 11.205 52.109 39.635
165 1 32 -0.197588 12.969 52.982 38.608
166 1 32 -0.192612 10.505 55.146 39.119
167 1 32 -0.192612 9.901 53.361 38.055
168 1 4 0.384184 11.546 54.687 37.105
169 1 4 0.426964 11.199 51.234 38.552
170 1 32 -0.168587 12.447 50.874 38.278
171 1 32 -0.168587 10.677 51.843 37.492
172 1 4 0.401351 10.391 50.016 38.864
173 1 4 0.457691 10.851 49.444 40.169
174 1 32 -0.164877 12.129 49.094 40.077
175 1 32 -0.164877 10.705 50.357 41.122
176 1 32 -0.164877 10.122 48.372 40.463
177 1 59 -0.251081 10.557 49.107 37.813
178 1 4 0.551974 10.395 47.756 38.111
179 1 32 -0.157269 11.022 47.486 39.251
180 1 32 -0.157269 10.926 47.035 37.131
181 1 4 0.667787 8.953 47.394 38.246
182 1 32 -0.085106 8.298 47.800 37.164
183 1 32 -0.085106 8.447 47.991 39.321
184 1 77 -0.00053 8.792 45.643 38.426
185 1 57 -0.46492 9.298 45.008 37.279
186 1 57 -0.46492 9.529 45.228 39.551
187 1 58 -0.051299 7.240 45.221 38.626
188 1 32 -0.191296 9.106 50.350 38.965
189 1 4 0.384496 10.972 54.096 35.800
190 1 32 -0.192267 12.856 54.472 37.118
191 1 32 -0.192267 11.320 55.994 37.083
192 1 32 -0.192254 11.972 53.538 35.126
193 1 32 -0.192254 10.077 53.157 36.100
194 1 4 0.384507 10.308 55.119 34.860
195 1 4 0.384508 10.203 54.617 33.406
196 1 32 -0.192254 9.085 55.389 35.312
197 1 32 -0.192254 11.033 56.233 34.862
198 1 32 -0.192254 11.432 54.453 32.940
199 1 32 -0.192254 9.572 53.448 33.399
200 1 4 0.384508 9.469 55.565 32.449
201 1 4 0.384508 9.433 55.013 31.021
202 1 32 -0.192254 8.222 55.738 32.878
203 1 32 -0.192254 10.099 56.736 32.447
204 1 32 -0.192254 10.655 54.585 30.724
205 1 32 -0.192254 8.590 53.984 30.977
206 1 4 0.384508 9.035 56.020 29.945
207 1 4 0.384508 7.732 55.662 29.251
208 1 32 -0.192254 9.999 56.051 29.035
209 1 32 -0.192254 8.913 57.218 30.501
210 1 32 -0.192254 6.741 56.284 29.878
211 1 32 -0.192254 7.547 54.347 29.323
212 1 4 0.384507 7.713 56.069 27.784
213 1 4 0.384498 6.303 56.041 27.238
214 1 32 -0.192254 8.464 55.222 27.082
215 1 32 -0.192254 8.197 57.298 27.652
216 1 32 -0.192254 5.607 56.978 27.870
217 1 32 -0.192254 5.760 54.853 27.479
218 1 4 0.384321 6.199 56.316 25.749
219 1 4 0.383045 6.365 55.053 24.941
220 1 32 -0.192264 4.990 56.810 25.492
221 1 32 -0.192264 7.124 57.198 25.384
222 1 32 -0.192467 7.620 54.956 24.516
223 1 32 -0.192467 6.075 54.014 25.714
224 1 4 0.380034 5.442 55.016 23.742
225 1 4 0.454944 5.816 56.054 22.730
226 1 59 -0.264588 5.534 53.756 23.151
227 1 32 -0.194272 4.194 55.235 24.152
228 1 32 -0.164964 5.767 57.268 23.270
229 1 32 -0.164964 7.047 55.809 22.293
230 1 32 -0.164964 4.966 55.999 21.710
231 1 4 0.427038 4.549 53.473 22.207
232 1 32 -0.168586 4.806 54.114 21.071
233 1 32 -0.168586 3.362 53.851 22.667
234 1 4 0.401352 4.537 52.001 21.966
235 1 4 0.457691 4.130 51.297 23.218
236 1 32 -0.164877 2.915 51.699 23.578
237 1 32 -0.164877 4.997 51.579 24.185
238 1 32 -0.164877 4.113 49.986 23.007
239 1 59 -0.251081 3.637 51.676 20.953
240 1 4 0.551974 3.960 50.408 20.485
241 1 32 -0.157269 4.545 49.751 21.478
242 1 32 -0.157269 4.809 50.515 19.467
243 1 4 0.667787 2.751 49.637 20.040
244 1 32 -0.085106 2.325 50.104 18.869
245 1 32 -0.085106 3.089 48.356 19.911
246 1 77 -0.00053 1.456 49.771 21.235
247 1 57 -0.46492 0.938 51.078 21.203
248 1 57 -0.46492 1.978 49.496 22.512
249 1 58 -0.051299 0.252 48.730 20.926
250 1 32 -0.191296 5.758 51.613 21.610
251 1 27 0.355634 20.597 38.615 75.335
252 1 27 0.355634 14.880 41.995 57.754
253 1 27 0.355634 6.960 44.749 39.448
254 1 27 0.355634 0.004 48.049 21.597
255 2 4 0.459642 65.598 71.817 64.690
256 2 4 0.409096 64.180 71.935 64.226
257 2 32 -0.164723 65.642 71.859 66.018
258 2 32 -0.164723 66.312 72.820 64.193
259 2 32 -0.164723 66.113 70.663 64.282
260 2 32 -0.188955 63.473 70.930 64.735
261 2 32 -0.188955 63.676 73.089 64.647
262 2 4 0.387411 64.113 71.879 62.731
263 2 4 0.384646 62.698 71.674 62.260
264 2 32 -0.192108 64.592 73.011 62.226
265 2 32 -0.192108 64.857 70.862 62.313
266 2 32 -0.192251 61.975 71.211 63.272
267 2 32 -0.192251 62.702 70.783 61.274
268 2 4 0.384511 62.078 72.948 61.749
269 2 4 0.384508 60.630 72.720 61.383
270 2 32 -0.192254 62.746 73.350 60.673
271 2 32 -0.192254 62.150 73.884 62.692
272 2 32 -0.192254 59.900 72.834 62.485
273 2 32 -0.192254 60.501 71.490 60.894
274 2 4 0.384508 60.136 73.710 60.347
275 2 4 0.384508 58.622 73.791 60.332
276 2 32 -0.192254 60.626 74.913 60.630
277 2 32 -0.192254 60.567 73.325 59.149
278 2 32 -0.192254 58.135 72.558 60.415
279 2 32 -0.192254 58.237 74.489 61.395
280 2 4 0.384507 58.080 74.452 59.072
281 2 4 0.384496 56.586 74.703 59.165
282 2 32 -0.192254 58.705 75.612 58.891
283 2 32 -0.192254 58.318 73.658 58.034
284 2 32 -0.192254 55.988 73.538 59.390
285 2 32 -0.192254 56.361 75.515 60.194
286 2 4 0.384184 55.995 75.327 57.903
287 2 4 0.380123 54.477 75.434 57.978
288 2 32 -0.192267 56.505 76.544 57.741
289 2 32 -0.192267 56.309 74.573 56.853
290 2 32 -0.192612 53.965 74.236 57.718
291 2 32 -0.192612 54.151 75.794 59.213
292 2 4 0.354487 53.875 76.460 57.009
293 2 4 0.380123 52.748 75.899 56.117
294 2 59 -0.266773 54.892 76.991 56.223
295 2 32 -0.197588 53.364 77.442 57.742
296 2 32 -0.192612 52.314 74.768 56.659
297 2 32 -0.192612 53.253 75.642 54.913
298 2 4 0.384184 51.538 76.846 55.960
299 2 4 0.426964 55.039 78.331 56.559
300 2 32 -0.168587 55.278 78.425 57.861
301 2 32 -0.168587 53.913 78.971 56.271
302 2 4 0.401351 56.163 78.982 55.811
303 2 4 0.457691 57.465 78.711 56.504
304 2 32 -0.164877 57.432 79.205 57.738
305 2 32 -0.164877 57.672 77.399 56.556
306 2 32 -0.164877 58.454 79.290 55.832
307 2 59 -0.251081 55.868 80.346 55.751
308 2 4 0.551974 56.915 81.265 55.824
309 2 32 -0.157269 57.778 80.870 56.755
310 2 32 -0.157269 56.418 82.453 56.152
311 2 4 0.667787 57.622 81.390 54.514
312 2 32 -0.085106 56.726 81.417 53.534
313 2 32 -0.085106 58.428 80.345 54.348
314 2 77 -0.00053 58.581 82.877 54.492
315 2 57 -0.46492 57.723 83.985 54.623
316 2 57 -0.46492 59.483 82.855 55.568
317 2 58 -0.051299 59.411 83.004 53.103
318 2 32 -0.191296 56.218 78.489 54.579
319 2 4 0.384496 50.496 76.397 54.902
320 2 32 -0.192267 51.988 78.053 55.632
321 2 32 -0.192267 50.931 76.911 57.141
322 2 32 -0.192254 50.098 75.173 55.216
323 2 32 -0.192254 51.089 76.372 53.713
324 2 4 0.384507 49.247 77.308 54.821
325 2 4 0.384508 48.200 76.886 53.756
326 2 32 -0.192254 49.647 78.546 54.560
327 2 32 -0.192254 48.654 77.278 56.010
328 2 32 -0.192254 47.706 75.710 54.118
329 2 32 -0.192254 48.815 76.755 52.583
330 2 4 0.384508 47.018 77.881 53.587
331 2 4 0.384508 45.882 77.405 52.638
332 2 32 -0.192254 47.499 79.028 53.123
333 2 32 -0.192254 46.482 78.079 54.787
334 2 32 -0.192254 45.301 76.352 53.201
335 2 32 -0.192254 46.424 77.033 51.480
336 2 4 0.384508 44.775 78.465 52.345
337 2 4 0.384508 43.617 77.979 51.421
338 2 32 -0.192254 44.255 78.856 53.504
339 2 32 -0.192254 45.351 79.505 51.752
340 2 32 -0.192254 44.124 77.780 50.212
341 2 32 -0.192254 43.166 76.825 51.902
342 2 4 0.384507 42.396 78.948 51.279
343 2 4 0.384496 41.857 79.131 49.829
344 2 32 -0.192254 42.755 80.141 51.747
345 2 32 -0.192254 41.410 78.467 52.029
346 2 32 -0.192254 42.520 78.256 49.084
347 2 32 -0.192254 42.171 80.358 49.423
348 2 4 0.384184 40.335 78.894 49.557
349 2 4 0.380123 39.390 80.129 49.532
350 2 32 -0.192267 40.232 78.285 48.383
351 2 32 -0.192267 39.900 78.076 50.510
352 2 32 -0.192612 38.456 79.929 50.450
353 2 32 -0.192612 40.105 81.198 49.866
354 2 4 0.354487 38.658 80.431 48.179
355 2 4 0.380123 37.093 80.435 48.230
356 2 59 -0.266773 39.063 81.699 47.780
357 2 32 -0.197588 39.043 79.523 47.290
358 2 32 -0.192612 36.691 79.229 48.609
359 2 32 -0.192612 36.711 81.331 49.131
360 2 4 0.384184 36.377 80.772 46.876
361 2 4 0.426964 39.629 81.693 46.515
362 2 32 -0.168587 40.252 80.538 46.320
363 2 32 -0.168587 38.680 81.844 45.600
364 2 4 0.401351 40.609 82.821 46.403
365 2 4 0.457691 41.638 82.713 47.483
366 2 32 -0.164877 41.058 82.772 48.676
367 2 32 -0.164877 42.279 81.556 47.359
368 2 32 -0.164877 42.507 83.712 47.371
369 2 59 -0.251081 39.944 84.040 46.510
370 2 4 0.551974 40.571 84.981 45.699
371 2 32 -0.157269 41.655 84.430 45.172
372 2 32 -0.157269 39.742 85.351 44.727
373 2 4 0.667787 40.961 86.188 46.490
374 2 32 -0.085106 39.874 86.731 47.033
375 2 32 -0.085106 41.801 85.825 47.456
376 2 77 -0.00053 41.759 87.370 45.448
377 2 57 -0.46492 40.879 87.782 44.436
378 2 57 -0.46492 42.134 88.487 46.225
379 2 58 -0.051299 43.089 86.730 44.777
380 2 32 -0.191296 41.210 82.758 45.215
381 2 4 0.384496 34.815 80.913 46.935
382 2 32 -0.192267 36.879 81.910 46.406
383 2 32 -0.192267 36.652 79.792 46.022
384 2 32 -0.192254 34.319 79.753 47.353
385 2 32 -0.192254 34.511 81.861 47.817
386 2 4 0.384507 34.113 81.268 45.579
387 2 4 0.384508 32.545 81.299 45.597
388 2 32 -0.192254 34.554 82.457 45.181
389 2 32 -0.192254 34.483 80.351 44.692
390 2 32 -0.192254 32.126 80.042 45.701
391 2 32 -0.192254 32.153 81.980 46.669
392 2 4 0.384508 31.868 81.936 44.338
393 2 4 0.384508 30.348 81.629 44.136
394 2 32 -0.192254 32.022 83.254 44.415
395 2 32 -0.192254 32.509 81.484 43.268
396 2 32 -0.192254 29.766 81.601 45.329
397 2 32 -0.192254 30.242 80.430 43.572
398 2 4 0.384508 29.569 82.661 43.258
399 2 4 0.384508 28.186 82.190 42.705
400 2 32 -0.192254 30.332 83.002 42.225
401 2 32 -0.192254 29.348 83.732 44.009
402 2 32 -0.192254 27.477 81.706 43.718
403 2 32 -0.192254 28.394 81.224 41.817
404 2 4 0.384507 27.334 83.310 42.024
405 2 4 0.384496 25.966 82.858 41.426
406 2 32 -0.192254 28.052 83.855 41.046
407 2 32 -0.192254 27.074 84.233 42.941
408 2 32 -0.192254 25.225 82.385 42.424
409 2 32 -0.192254 26.189 81.883 40.549
410 2 4 0.384184 25.154 83.988 40.717
411 2 4 0.380123 23.771 83.568 40.147
412 2 32 -0.192267 24.969 84.974 41.586
413 2 32 -0.192267 25.886 84.434 39.702
414 2 32 -0.192612 23.977 82.643 39.216
415 2 32 -0.192612 23.049 83.045 41.133
416 2 4 0.354487 22.961 84.729 39.510
417 2 4 0.380123 21.904 84.286 38.468
418 2 59 -0.266773 23.855 85.580 38.870
419 2 32 -0.197588 22.341 85.390 40.482
420 2 32 -0.192612 22.145 83.018 38.169
421 2 32 -0.192612 22.059 85.029 37.375
422 2 4 0.384184 20.429 84.388 38.891
423 2 4 0.426964 23.278 86.833 38.684
424 2 32 -0.168587 23.040 87.381 39.870
425 2 32 -0.168587 22.131 86.701 38.025
426 2 4 0.401351 24.191 87.723 37.905
427 2 4 0.457691 25.546 87.712 38.539
428 2 32 -0.164877 25.462 88.174 39.781
429 2 32 -0.164877 26.011 86.467 38.556
430 2 32 -0.164877 26.369 88.485 37.837
431 2 59 -0.251081 23.636 89.008 37.893
432 2 4 0.551974 24.515 90.078 37.746
433 2 32 -0.157269 25.571 89.881 38.528
434 2 32 -0.157269 23.895 91.194 38.111
435 2 4 0.667787 24.972 90.223 36.333
436 2 32 -0.085106 23.911 90.270 35.535
437 2 32 -0.085106 25.727 89.179 36.004
438 2 77 -0.00053 25.922 91.702 36.160
439 2 57 -0.46492 25.119 92.811 36.477
440 2 57 -0.46492 27.015 91.651 37.046
441 2 58 -0.051299 26.476 91.863 34.647
442 2 32 -0.191296 24.291 87.271 36.656
443 2 4 0.384496 19.599 85.435 38.118
444 2 32 -0.192267 20.374 84.688 40.184
445 2 32 -0.192267 19.862 83.206 38.694
446 2 32 -0.192254 19.121 86.312 38.995
447 2 32 -0.192254 20.388 86.072 37.256
448 2 4 0.384507 18.393 84.867 37.346
449 2 4 0.384508 17.334 85.937 37.017
450 2 32 -0.192254 18.827 84.326 36.209
451 2 32 -0.192254 17.816 83.928 38.088
452 2 32 -0.192254 16.841 86.391 38.159
453 2 32 -0.192254 17.919 86.937 36.365
454 2 4 0.384508 16.155 85.438 36.171
455 2 4 0.384508 15.132 86.548 35.913
456 2 32 -0.192254 16.614 84.992 35.005
457 2 32 -0.192254 15.560 84.441 36.820
458 2 32 -0.192254 14.907 87.165 37.068
459 2 32 -0.192254 15.649 87.419 35.050
460 2 4 0.384508 13.781 86.076 35.382
461 2 4 0.384508 13.481 86.587 33.984
462 2 32 -0.192254 12.840 86.523 36.202
463 2 32 -0.192254 13.763 84.749 35.370
464 2 32 -0.192254 13.887 85.673 33.111
465 2 32 -0.192254 14.147 87.720 33.782
466 2 4 0.384507 12.000 86.855 33.758
467 2 4 0.384498 11.699 86.996 32.282
468 2 32 -0.192254 11.655 87.982 34.378
469 2 32 -0.192254 11.282 85.850 34.244
470 2 32 -0.192254 11.934 85.823 31.709
471 2 32 -0.192254 12.503 87.912 31.755
472 2 4 0.384321 10.266 87.384 31.966
473 2 4 0.383045 10.083 88.881 31.983
474 2 32 -0.192264 9.969 86.949 30.744
475 2 32 -0.192264 9.440 86.828 32.847
476 2 32 -0.192467 9.594 89.259 33.159
477 2 32 -0.192467 11.263 89.455 31.787
478 2 4 0.380034 9.146 89.355 30.892
479 2 4 0.454944 7.743 88.892 31.136
480 2 59 -0.264588 9.164 90.749 30.868
481 2 32 -0.194272 9.567 88.875 29.724
482 2 32 -0.164964 7.695 87.565 31.195
483 2 32 -0.164964 7.311 89.406 32.284
484 2 32 -0.164964 6.964 89.311 30.145
485 2 4 0.427038 8.569 91.328 29.749
486 2 32 -0.168586 7.245 91.266 29.849
487 2 32 -0.168586 8.957 90.689 28.651
488 2 4 0.401352 9.004 92.753 29.668
489 2 4 0.457691 10.478 92.808 29.435
490 2 32 -0.164877 10.770 92.189 28.296
491 2 32 -0.164877 11.107 92.211 30.441
492 2 32 -0.164877 10.869 94.075 29.357
493 2 59 -0.251081 8.357 93.406 28.622
494 2 4 0.551974 8.459 94.775 28.844
495 2 32 -0.157269 9.559 94.984 29.553
496 2 32 -0.157269 7.402 95.191 29.536
497 2 4 0.667787 8.551 95.556 27.566
498 2 32 -0.085106 7.356 95.607 26.982
499 2 32 -0.085106 8.958 96.790 27.852
500 2 77 -0.00053 9.714 94.809 26.464
501 2 57 -0.46492 9.173 93.606 25.976
502 2 57 -0.46492 10.907 94.548 27.163
503 2 58 -0.051299 10.044 95.776 25.205
504 2 32 -0.191296 8.708 93.359 30.815
505 2 27 0.355634 60.398 83.051 53.119
506 2 27 0.355634 43.973 87.135 44.948
507 2 27 0.355634 27.450 91.908 34.479
508 2 27 0.355634 10.972 96.076 25.043
509 3 4 0.459642 38.759 98.976 37.329
510 3 4 0.409096 39.649 97.852 36.898
511 3 32 -0.164723 37.992 99.358 36.313
512 3 32 -0.164723 39.502 100.001 37.730
513 3 32 -0.164723 37.979 98.579 38.327
514 3 32 -0.188955 38.895 96.835 36.493
515 3 32 -0.188955 40.418 98.262 35.896
516 3 4 0.387411 40.513 97.405 38.037
517 3 4 0.384646 41.175 96.089 37.728
518 3 32 -0.192108 41.441 98.326 38.274
519 3 32 -0.192108 39.751 97.262 39.114
520 3 32 -0.192251 40.519 95.505 36.732
521 3 32 -0.192251 41.114 95.318 38.810
522 3 4 0.384511 42.620 96.255 37.342
523 3 4 0.384508 43.216 94.924 36.944
524 3 32 -0.192254 43.290 96.744 38.380
525 3 32 -0.192254 42.709 97.099 36.317
526 3 32 -0.192254 42.924 94.704 35.668
527 3 32 -0.192254 42.671 93.971 37.692
528 3 4 0.384508 44.720 94.890 37.129
529 3 4 0.384508 45.355 93.779 36.315
530 3 32 -0.192254 45.232 96.053 36.739
531 3 32 -0.192254 44.987 94.697 38.417
532 3 32 -0.192254 44.606 92.689 36.435
533 3 32 -0.192254 45.375 94.161 35.042
534 3 4 0.384507 46.773 93.456 36.766
535 3 4 0.384496 47.459 92.488 35.818
536 3 32 -0.192254 47.476 94.584 36.820
537 3 32 -0.192254 46.725 92.909 37.976
538 3 32 -0.192254 46.717 91.389 35.746
539 3 32 -0.192254 47.521 93.054 34.616
540 3 4 0.384184 48.871 92.106 36.258
541 3 4 0.380123 49.473 91.030 35.363
542 3 32 -0.192267 49.646 93.185 36.216
543 3 32 -0.192267 48.830 91.639 37.502
544 3 32 -0.192612 48.960 89.858 35.722
545 3 32 -0.192612 49.127 91.296 34.109
546 3 4 0.354487 51.004 90.950 35.427
547 3 4 0.380123 51.550 89.537 35.722
548 3 59 -0.266773 51.464 91.853 36.379
549 3 32 -0.197588 51.469 91.327 34.242
550 3 32 -0.192612 50.584 88.660 35.480
551 3 32 -0.192612 51.884 89.476 37.009
552 3 4 0.384184 52.775 89.143 34.869
553 3 4 0.426964 52.172 92.849 35.719
554 3 32 -0.168587 51.385 93.405 34.806
555 3 32 -0.168587 53.223 92.304 35.119
556 3 4 0.401351 52.656 93.916 36.654
557 3 4 0.457691 51.566 94.914 36.902
558 3 32 -0.164877 51.206 95.485 35.756
559 3 32 -0.164877 50.517 94.299 37.440
560 3 32 -0.164877 52.004 95.853 37.734
561 3 59 -0.251081 53.780 94.493 36.058
562 3 4 0.551974 54.002 95.861 36.225
563 3 32 -0.157269 52.847 96.508 36.102
564 3 32 -0.157269 54.847 96.272 35.286
565 3 4 0.667787 54.596 96.156 37.563
566 3 32 -0.085106 55.528 95.251 37.838
567 3 32 -0.085106 53.642 96.106 38.488
568 3 77 -0.00053 55.314 97.774 37.554
569 3 57 -0.46492 56.353 97.815 36.605
570 3 57 -0.46492 54.327 98.710 37.206
571 3 58 -0.051299 55.909 98.145 39.016
572 3 32 -0.191296 53.006 93.363 37.810
573 3 4 0.384496 53.467 87.823 35.296
574 3 32 -0.192267 53.664 90.131 34.927
575 3 32 -0.192267 52.356 89.006 33.614
576 3 32 -0.192254 52.554 86.862 35.282
577 3 32 -0.192254 53.925 87.971 36.536
578 3 4 0.384507 54.637 87.396 34.377
579 3 4 0.384508 55.353 86.086 34.797
580 3 32 -0.192254 55.527 88.380 34.346
581 3 32 -0.192254 54.138 87.214 33.157
582 3 32 -0.192254 54.484 85.092 34.679
583 3 32 -0.192254 55.718 86.192 36.073
584 3 4 0.384508 56.610 85.739 33.951
585 3 4 0.384508 57.253 84.357 34.255
586 3 32 -0.192254 57.523 86.681 34.152
587 3 32 -0.192254 56.247 85.741 32.672
588 3 32 -0.192254 56.385 83.420 33.891
589 3 32 -0.192254 57.464 84.266 35.567
590 3 4 0.384508 58.600 84.077 33.520
591 3 4 0.384508 59.231 82.678 33.797
592 3 32 -0.192254 58.394 84.196 32.212
593 3 32 -0.192254 59.477 84.995 33.909
594 3 32 -0.192254 59.608 82.651 35.068
595 3 32 -0.192254 58.290 81.759 33.601
596 3 4 0.384507 60.466 82.292 32.917
597 3 4 0.384496 61.653 81.639 33.688
598 3 32 -0.192254 60.912 83.395 32.320
599 3 32 -0.192254 60.051 81.434 31.992
600 3 32 -0.192254 61.215 81.439 34.925
601 3 32 -0.192254 62.653 82.515 33.727
602 3 4 0.384184 62.214 80.269 33.181
603 3 4 0.380123 63.469 80.282 32.262
604 3 32 -0.192267 62.507 79.541 34.250
605 3 32 -0.192267 61.231 79.679 32.509
606 3 32 -0.192612 63.137 79.672 31.134
607 3 32 -0.192612 63.770 81.549 31.998
608 3 4 0.354487 64.756 79.576 32.813
609 3 4 0.380123 65.316 78.397 31.948
610 3 59 -0.266773 65.747 80.548 32.881
611 3 32 -0.197588 64.483 79.110 34.026
612 3 32 -0.192612 64.380 77.460 31.875
613 3 32 -0.192612 65.572 78.862 30.731
614 3 4 0.384184 66.623 77.724 32.496
615 3 4 0.426964 66.273 80.669 34.157
616 3 32 -0.168587 65.327 80.405 35.048
617 3 32 -0.168587 67.276 79.814 34.309
618 3 4 0.401351 66.780 82.066 34.356
619 3 4 0.457691 65.680 83.048 34.103
620 3 32 -0.164877 65.239 82.931 32.856
621 3 32 -0.164877 64.684 82.814 34.949
622 3 32 -0.164877 66.136 84.282 34.290
623 3 59 -0.251081 67.839 82.315 33.488
624 3 4 0.551974 68.755 83.160 34.107
625 3 32 -0.157269 68.263 83.529 35.282
626 3 32 -0.157269 69.903 82.513 34.289
627 3 4 0.667787 69.008 84.373 33.271
628 3 32 -0.085106 69.486 84.001 32.087
629 3 32 -0.085106 67.865 85.030 33.097
630 3 77 -0.00053 70.168 85.437 34.073
631 3 57 -0.46492 71.389 84.766 34.244
632 3 57 -0.46492 70.370 86.580 33.271
633 3 58 -0.051299 69.605 85.904 35.519
634 3 32 -0.191296 67.207 82.198 35.611
635 3 4 0.384496 67.276 76.631 31.577
636 3 32 -0.192267 67.526 78.674 32.716
637 3 32 -0.192267 66.319 77.139 33.649
638 3 32 -0.192254 66.385 75.660 31.409
639 3 32 -0.192254 67.550 77.182 30.399
640 3 4 0.384507 68.591 75.979 32.128
641 3 4 0.384508 69.191 74.806 31.278
642 3 32 -0.192254 69.511 76.932 32.242
643 3 32 -0.192254 68.317 75.496 33.335
644 3 32 -0.192254 68.387 73.759 31.426
645 3 32 -0.192254 69.196 75.175 30.001
646 3 4 0.384508 70.642 74.365 31.665
647 3 4 0.384508 71.112 72.973 31.131
648 3 32 -0.192254 71.483 75.292 31.216
649 3 32 -0.192254 70.707 74.324 32.990
650 3 32 -0.192254 70.609 72.802 29.914
651 3 32 -0.192254 70.624 72.036 31.938
652 3 4 0.384508 72.660 72.784 31.030
653 3 4 0.384508 73.166 71.312 30.896
654 3 32 -0.192254 73.225 73.319 32.106
655 3 32 -0.192254 73.069 73.440 29.951
656 3 32 -0.192254 72.490 70.728 29.914
657 3 32 -0.192254 72.919 70.677 32.036
658 3 4 0.384507 74.690 71.168 30.573
659 3 4 0.384496 75.231 69.708 30.476
660 3 32 -0.192254 75.385 71.804 31.511
661 3 32 -0.192254 74.910 71.746 29.400
662 3 32 -0.192254 74.584 69.102 29.486
663 3 32 -0.192254 74.965 69.081 31.618
664 3 4 0.384184 76.762 69.594 30.192
665 3 4 0.380123 77.316 68.149 30.054
666 3 32 -0.192267 77.028 70.255 29.072
667 3 32 -0.192267 77.405 70.173 31.201
668 3 32 -0.192612 77.124 67.525 31.211
669 3 32 -0.192612 76.632 67.524 29.100
670 3 4 0.354487 78.827 68.072 29.704
671 3 4 0.380123 79.519 66.747 30.110
672 3 59 -0.266773 79.477 69.109 30.365
673 3 32 -0.197588 78.962 68.231 28.392
674 3 32 -0.192612 78.695 66.099 30.921
675 3 32 -0.192612 80.636 67.045 30.770
676 3 4 0.384184 79.897 65.786 28.971
677 3 4 0.426964 80.701 69.374 29.757
678 3 32 -0.168587 80.485 69.809 28.521
679 3 32 -0.168587 81.424 68.259 29.709
680 3 4 0.401351 81.454 70.414 30.521
681 3 4 0.457691 80.564 71.595 30.749
682 3 32 -0.164877 80.196 72.110 29.581
683 3 32 -0.164877 79.488 71.208 31.425
684 3 32 -0.164877 81.221 72.516 31.448
685 3 59 -0.251081 82.589 70.757 29.779
686 3 4 0.551974 83.112 72.034 29.973
687 3 32 -0.157269 82.115 72.912 29.995
688 3 32 -0.157269 83.930 72.318 28.966
689 3 4 0.667787 83.876 72.126 31.252
690 3 32 -0.085106 84.777 71.151 31.292
691 3 32 -0.085106 83.037 71.996 32.276
692 3 77 -0.00053 84.680 73.695 31.356
693 3 57 -0.46492 85.590 73.824 30.293
694 3 57 -0.46492 83.712 74.713 31.267
695 3 58 -0.051299 85.477 73.847 32.759
696 3 32 -0.191296 81.826 69.916 31.699
697 3 4 0.384496 81.414 65.592 28.757
698 3 32 -0.192267 79.373 66.237 27.838
699 3 32 -0.192267 79.380 64.596 29.247
700 3 32 -0.192254 81.706 65.966 27.516
701 3 32 -0.192254 82.080 66.366 29.610
702 3 4 0.384507 81.914 64.144 28.921
703 3 4 0.384508 83.271 63.897 28.235
704 3 32 -0.192254 82.031 63.875 30.220
705 3 32 -0.192254 81.021 63.321 28.380
706 3 32 -0.192254 83.110 64.071 26.932
707 3 32 -0.192254 84.151 64.784 28.689
708 3 4 0.384508 83.854 62.494 28.445
709 3 4 0.384508 85.185 62.316 27.710
710 3 32 -0.192254 84.047 62.293 29.746
711 3 32 -0.192254 82.982 61.600 27.988
712 3 32 -0.192254 85.033 62.794 26.480
713 3 32 -0.192254 86.123 63.023 28.337
714 3 4 0.384508 85.666 60.873 27.577
715 3 4 0.384508 86.967 60.611 28.315
716 3 32 -0.192254 85.858 60.622 26.289
717 3 32 -0.192254 84.729 60.062 28.051
718 3 32 -0.192254 86.673 60.161 29.529
719 3 32 -0.192254 87.648 61.749 28.417
720 3 4 0.384507 87.848 59.586 27.614
721 3 4 0.384498 88.930 59.083 28.544
722 3 32 -0.192254 88.421 60.149 26.552
723 3 32 -0.192254 87.112 58.555 27.220
724 3 32 -0.192254 88.338 58.420 29.530
725 3 32 -0.192254 89.595 60.118 29.047
726 3 4 0.384321 89.932 58.146 27.896
727 3 4 0.383045 91.064 58.907 27.251
728 3 32 -0.192264 90.451 57.362 28.838
729 3 32 -0.192264 89.326 57.396 26.979