# LAMMPS data file written by OVITO Basic 3.8.4

2532 atoms
5 atom types

0.0 33.5626 xlo xhi
0.0 33.5856 ylo yhi
0.0 33.5626 zlo zhi

Masses

1 18.9984032  # F
2 15.9994  # O
3 1.00794  # H
4 32.065  # S
5 12.0107  # C

Atoms  # full

1 1 1 0.0 4.422208176 1.0127905608 4.6661747154
2 1 1 0.0 8.9575558766 2.5718609813 1.3607519856
3 1 1 0.0 9.0559614198 4.070238864 3.9761276594
4 1 1 0.0 8.7286589446 5.0958423312 1.278399434
5 1 1 0.0 11.2185339882 2.5728987763 1.3784092695
6 1 1 0.0 10.0185367878 1.5932941469 3.1116624837
7 1 1 0.0 10.9271770576 5.4203463984 1.1539761633
8 1 1 0.0 11.2238033164 4.1595429744 3.6771855812
9 1 1 0.0 16.0371500328 2.9186323013 3.4581560536
10 1 1 0.0 16.43896148 4.825243152 0.3625465615
11 1 1 0.0 2.1601560612 9.6052129152 3.5909296992
12 1 1 0.0 4.319170994 10.6165425024 5.5016149546
13 1 1 0.0 1.3091293506 8.5842442608 5.3271565598
14 1 1 0.0 8.4493174248 6.6669766992 3.397709811
15 1 1 0.0 9.6578395256 7.6815976752 1.7847785178
16 1 1 0.0 9.3868886558 8.8985383056 4.5948206278
17 1 1 0.0 10.98000459 9.4786623744 3.1829930775
18 1 1 0.0 10.3691988326 11.1289580016 5.5669613368
19 1 1 0.0 10.8456870648 6.2642853552 4.9844824138
20 1 1 0.0 12.0976056074 6.8583810336 3.2015901142
21 1 1 0.0 12.9832890588 8.6726751456 5.182736692
22 1 1 0.0 13.8346379704 10.303558296 1.4428763116
23 1 1 0.0 16.4993070348 10.8530858832 1.438815237
24 1 1 0.0 2.8035712408 15.7921842192 2.4162454117
25 1 1 0.0 1.1091902298 13.379495472 1.8083763818
26 1 1 0.0 3.3592135088 14.425518984 0.7586288728
27 1 1 0.0 3.7672675996 13.004680176 5.2959097792
28 1 1 0.0 4.98572423 15.6815868384 5.5637728898
29 1 1 0.0 0.9662034851 14.1217708176 5.2600649224
30 1 1 0.0 5.3522613846 15.6248271744 1.514253893
31 1 1 0.0 12.4197730048 11.3322516384 4.7825698122
32 1 1 0.0 14.3858701128 12.4850101872 1.0519626406
33 1 1 0.0 11.4860950354 12.0361050576 0.4585892976
34 1 1 0.0 4.1802889552 2.8193028893 6.7899153556
35 1 1 0.0 2.7741804719 1.028559 7.2264976564
36 1 1 0.0 4.7647480716 1.2158894011 8.3568188992
37 1 1 0.0 6.3034925938 1.0515214747 5.9764586194
38 1 1 0.0 7.3278231458 5.14363464 9.4934834734
39 1 1 0.0 5.9674638426 3.3477790224 11.0854247166
40 1 1 0.0 11.4978419454 0.3458342818 9.8281025954
41 1 1 0.0 2.9140190448 10.0106246928 7.117956208
42 1 1 0.0 16.7371316184 3.5477476848 5.512153611
43 1 1 0.0 8.7889373742 7.0600961472 9.1947092082
44 1 1 0.0 7.4063596298 8.9741059056 10.404573813
45 1 1 0.0 6.2582837716 6.2834291472 10.9474153054
46 1 1 0.0 9.5679253202 9.0136697424 11.0260189146
47 1 1 0.0 9.7724893672 6.333572448 11.0115869966
48 1 1 0.0 11.1779903674 10.4475733488 8.070630609
49 1 1 0.0 11.2918682692 8.3110589904 6.6072341238
50 1 1 0.0 13.2724644204 10.0211034 7.4998650334
51 1 1 0.0 4.923129981 16.3690840704 7.662677206
52 1 1 0.0 0.9701571593 13.7956546416 7.473719768
53 1 1 0.0 3.0933540854 16.26718536 9.8174968138
54 1 1 0.0 2.8412116967 12.3285012912 8.7669538712
55 1 1 0.0 4.6518099226 11.8187390544 7.5934375622
56 1 1 0.0 5.1310838506 12.8583141312 9.7475523554
57 1 1 0.0 2.5179165959 15.1569125952 6.6005216038
58 1 1 0.0 2.9764589059 14.405367624 10.9107649462
59 1 1 0.0 5.827306425 16.3729464144 9.9757444728
60 1 1 0.0 6.4321380396 13.767745008 6.1557835912
61 1 1 0.0 8.1096303502 15.1258123296 6.7644413422
62 1 1 0.0 10.4901248804 12.9164843904 9.2492819958
63 1 1 0.0 7.336616547 12.9869469792 8.5193290084
64 1 1 0.0 7.4703299454 15.017297256 9.2707620598
65 1 1 0.0 9.5128826562 14.4065095344 10.9594307162
66 1 1 0.0 10.887204001 16.0739674032 10.7267076478
67 1 1 0.0 11.6040340118 14.781694272 8.7823591046
68 1 1 0.0 11.5881253394 13.07991192 6.8255588368
69 1 1 0.0 13.012555646 11.557140816 9.6581080264
70 1 1 0.0 13.6585350082 12.6968345664 6.6526778842
71 1 1 0.0 14.0849478412 13.3732149648 9.0178343062
72 1 1 0.0 0.606063362 4.6771978272 15.1690198212
73 1 1 0.0 1.6459367541 0.6020991269 15.0978671092
74 1 1 0.0 4.6914473532 2.289194496 13.9847970428
75 1 1 0.0 4.7631035042 4.0157630208 15.8641348298
76 1 1 0.0 5.77780159 4.652949024 12.8139657418
77 1 1 0.0 8.961549826 3.798699288 11.3148250876
78 1 1 0.0 8.1334262336 2.7835913208 16.7221291362
79 1 1 0.0 6.4055228978 1.2199028803 15.0020123236
80 1 1 0.0 6.90214869 1.3829911954 12.4537719186
81 1 1 0.0 8.2926807706 2.6766849974 13.5831534086
82 1 1 0.0 6.7390008914 4.6700440944 15.0052007706
83 1 1 0.0 8.4348855068 5.3693634576 12.9326095328
84 1 1 0.0 4.5888129224 9.6061868976 16.3382401174
85 1 1 0.0 0.4762365127 6.3321618528 13.6348398126
86 1 1 0.0 3.3917692308 9.8390358624 14.2568219158
87 1 1 0.0 4.9519602544 8.3170036416 12.447361462
88 1 1 0.0 3.9762619098 10.3502086944 11.448035047
89 1 1 0.0 0.2517987077 7.4579511648 16.239767449
90 1 1 0.0 5.679798798 8.2967851104 14.5513337308
91 1 1 0.0 7.3613857458 7.3010728272 13.117438771
92 1 1 0.0 10.1376504552 7.8838165728 13.239774448
93 1 1 0.0 9.6537448884 10.0437065088 13.0928709478
94 1 1 0.0 8.1704457814 7.6889529216 15.4291635338
95 1 1 0.0 8.0815048914 9.9427481952 15.39684275
96 1 1 0.0 10.9982290818 9.9395575632 15.3038407854
97 1 1 0.0 11.0432029658 7.7999533296 15.5568356642
98 1 1 0.0 0.3311208922 15.511677288 16.2757129936
99 1 1 0.0 3.2909505367 11.4543352944 16.2391968848
100 1 1 0.0 1.3910724385 15.8983483008 12.2454488604
101 1 1 0.0 2.467535777 15.8294978208 14.8218818494
102 1 1 0.0 3.6686606808 12.232883088 12.5968492824
103 1 1 0.0 4.1782751992 15.3535226976 13.1767103226
104 1 1 0.0 5.963906207 14.6728097568 11.3680553712
105 1 1 0.0 5.7674978718 11.5975442928 11.9525480502
106 1 1 0.0 8.1285932192 15.147273528 13.1904709886
107 1 1 0.0 10.5825898434 14.0436171264 13.655615062
108 1 1 0.0 9.5070427638 15.968609376 15.6446354258
109 1 1 0.0 6.6864418598 16.6422693408 14.6435973182
110 1 1 0.0 16.5813675918 12.9569214528 11.8991835162
111 1 1 0.0 16.422012367 16.5504463104 14.2501093958
112 1 1 0.0 11.5984290576 12.7228634064 11.7367405322
113 1 1 0.0 14.2089616482 12.5243389248 11.7497292584
114 1 1 0.0 11.7033457452 15.93048972 13.3830531874
115 1 1 0.0 15.3136746272 15.5244062304 12.1283825116
116 1 1 0.0 16.0831307948 12.5159089392 14.0458474122
117 1 1 0.0 12.9612719932 13.249351272 13.570030432
118 1 1 0.0 15.921090562 14.65759548 15.483602071
119 1 1 0.0 1.7427984177 2.4579990802 22.0287453848
120 1 1 0.0 5.638181174 3.1529791838 20.7521247686
121 1 1 0.0 5.42371616 4.435986048 18.5258168228
122 1 1 0.0 5.1109798532 5.3051477904 20.6994986118
123 1 1 0.0 1.8421873451 4.71709752 22.205855225
124 1 1 0.0 0.5878791453 16.7057461248 21.3516199298
125 1 1 0.0 6.173672457 1.9703227339 17.403718417
126 1 1 0.0 7.5804823986 2.5592059272 19.4349605316
127 1 1 0.0 8.9831641404 4.2117349968 18.8832585128
128 1 1 0.0 8.3959193282 4.4385721392 21.4851655152
129 1 1 0.0 6.9866593168 5.5755118704 17.4984656368
130 1 1 0.0 16.1982840754 0.1280921198 19.8483510758
131 1 1 0.0 15.526394386 0.4765897397 17.355388273
132 1 1 0.0 7.5287288694 6.0846023952 20.3435672388
133 1 1 0.0 9.1542327126 8.179604952 17.8385554626
134 1 1 0.0 9.627767436 10.383324096 17.7775722184
135 1 1 0.0 10.2484741604 9.9460059984 19.9577651518
136 1 1 0.0 6.6379439028 10.9723819344 17.5148777482
137 1 1 0.0 10.5668825466 7.6964425104 20.1662895856
138 1 1 0.0 12.4164167448 8.4286757616 21.7494374276
139 1 1 0.0 13.6035594694 8.540482224 19.8551642836
140 1 1 0.0 11.928315853 7.5120575664 17.7981796548
141 1 1 0.0 12.4152756164 9.7716631488 17.67909955
142 1 1 0.0 14.1014606404 10.8049577184 20.415458328
143 1 1 0.0 1.603634453 16.0542190704 18.5974729738
144 1 1 0.0 0.3866008769 14.5456882608 20.8327421338
145 1 1 0.0 5.6879545098 12.9199437072 17.1798223124
146 1 1 0.0 10.6221937114 12.7114443024 21.231197321
147 1 1 0.0 7.6200191414 15.9773752176 19.5316543822
148 1 1 0.0 12.131705209 11.372755872 19.6056934778
149 1 1 0.0 12.7517071188 13.4863984368 21.1198030516
150 1 1 0.0 16.222986149 16.757870976 17.0840010894
151 1 1 0.0 0.642465358 1.9547255813 25.648874546
152 1 1 0.0 1.9090843194 3.9899356944 25.3177459344
153 1 1 0.0 1.0820481552 0.7431183442 23.8318960698
154 1 1 0.0 4.7246743272 3.7028124 25.1428847884
155 1 1 0.0 0.2594241305 3.5175542304 23.3081852594
156 1 1 0.0 1.991359677 0.4077661282 27.2565566486
157 1 1 0.0 3.6327151362 5.4127896384 24.0789168058
158 1 1 0.0 6.6508655038 3.4127671584 23.3081852594
159 1 1 0.0 6.1560185294 5.7691328544 24.7896048608
160 1 1 0.0 5.5070856584 6.8297661024 22.9062395618
161 1 1 0.0 7.6556961852 6.131219208 23.1065411586
162 1 1 0.0 5.8698638018 9.084568944 24.4556569908
163 1 1 0.0 8.0354234416 8.56096944 24.196620844
164 1 1 0.0 8.720738171 10.8546644064 25.748052029
165 1 1 0.0 11.456425697 10.4354489472 22.7182554392
166 1 1 0.0 13.528412808 11.1054480816 22.906306687
167 1 1 0.0 1.7456848013 16.7065521792 27.7464699208
168 1 1 0.0 4.1192050232 16.3334161632 27.520325122
169 1 1 0.0 0.5210090211 15.3216835488 25.9792647804
170 1 1 0.0 6.6397562832 11.5268130192 25.8969692852
171 1 1 0.0 10.0389428486 14.8702930848 22.763330011
172 1 1 0.0 10.3518469684 15.0306307392 25.481229359
173 1 1 0.0 8.4588492032 12.5894614032 27.7851675986
174 1 1 0.0 12.0706884022 15.5902340064 22.360075372
175 1 1 0.0 11.0559567538 12.6156581712 24.1872568786
176 1 1 0.0 13.1112632526 13.3098389376 23.9406053312
177 1 1 0.0 12.5147551628 15.010412208 25.42031324
178 1 1 0.0 12.9401946804 15.832587696 27.5380126122
179 1 1 0.0 16.042587174 0.0107182061 32.3423645518
180 1 1 0.0 15.22902975 0.2318118415 28.456721662
181 1 1 0.0 13.7850324476 0.3939960322 32.3115876476
182 1 1 0.0 13.836349663 1.892350405 30.0851118888
183 1 1 0.0 15.0502753424 2.5955623392 33.0454674592
184 1 1 0.0 16.2802439446 2.1712317931 28.520322789
185 1 1 0.0 14.5228390834 5.2585309776 32.8298277542
186 1 1 0.0 7.0827826032 8.0283689952 29.0489673016
187 1 1 0.0 9.0552230426 8.894978232 29.6342990456
188 1 1 0.0 10.1227150982 10.2184188 31.6803087042
189 1 1 0.0 7.1815908976 9.7456678944 30.518975619
190 1 1 0.0 6.335444189 10.8692069712 28.2084255472
191 1 1 0.0 10.0003794212 10.9832300832 28.2057405392
192 1 1 0.0 11.5229467702 9.8529067152 33.5319909088
193 1 1 0.0 15.8538311116 9.3725318784 33.4314037966
194 1 1 0.0 13.786173576 10.1196099648 31.9334378334
195 1 1 0.0 0.6324032905 14.3228142192 33.374313814
196 1 1 0.0 4.0406685392 16.0869650304 32.4742655698
197 1 1 0.0 6.6394877824 15.29572188 28.1115974462
198 1 1 0.0 5.5973690524 15.869363928 30.0071795316
199 1 1 0.0 9.118287168 12.557991696 32.7194068002
200 1 1 0.0 10.1040878552 15.7186317552 30.1633463094
201 1 1 0.0 9.0867718866 15.0006052128 28.2809543258
202 1 1 0.0 7.1402417744 13.6326973104 29.747203632
203 1 1 0.0 7.9715202512 14.3443090032 31.7063868444
204 1 1 0.0 10.4568307812 13.2680248656 29.4744403818
205 1 1 0.0 10.9140876436 13.68949056 32.0218417218
206 1 1 0.0 16.1548876336 11.162006232 31.4207019932
207 1 1 0.0 15.952975032 16.3000656624 31.4795707936
208 1 1 0.0 15.303538722 15.7158105648 28.8644401268
209 1 1 0.0 11.8098063124 11.1454149456 30.6145954664
210 1 1 0.0 13.7087782204 12.3385098 32.043221098
211 1 1 0.0 13.2003048304 16.4548952784 30.2869573652
212 1 1 0.0 16.1480408632 12.9790879488 32.7509220816
213 1 1 0.0 5.1056098372 17.68365804 2.0326383188
214 1 1 0.0 4.781495809 20.8725100032 4.0161342786
215 1 1 0.0 3.13601215 22.164312936 2.7794531564
216 1 1 0.0 4.8862782462 18.351003912 4.9151420822
217 1 1 0.0 5.6430813136 21.0498755568 1.7372404511
218 1 1 0.0 6.9975671618 19.7588450928 4.2045882776
219 1 1 0.0 6.2952026316 17.1378584544 0.2088503266
220 1 1 0.0 7.3523238438 17.083483368 5.0829215196
221 1 1 0.0 7.2560327444 22.1314998048 5.4690927952
222 1 1 0.0 13.8020486858 19.7349657312 1.410790466
223 1 1 0.0 12.7053236056 20.1563306688 3.693060691
224 1 1 0.0 14.4236280378 18.8483058912 4.3726362158
225 1 1 0.0 15.7330057516 18.8820258336 1.9830529335
226 1 1 0.0 16.21577019 21.2636479008 3.6649352322
227 1 1 0.0 14.3282431286 22.113430752 2.8109717941
228 1 1 0.0 13.2990459996 22.1045977392 5.5139324288
229 1 1 0.0 5.2491570774 24.9205823712 3.520045488
230 1 1 0.0 3.0213925148 24.3445893312 2.4319795586
231 1 1 0.0 3.2928803862 23.4648817104 5.2318387758
232 1 1 0.0 1.326071751 26.902233528 1.0223671399
233 1 1 0.0 5.4209975894 24.1436466864 0.7420254546
234 1 1 0.0 3.4890672082 23.301521352 0.0058547271
235 1 1 0.0 6.2803679624 22.9775210688 3.0994222035
236 1 1 0.0 9.2053149898 22.5899768304 1.3250682293
237 1 1 0.0 8.519530384 24.7325365968 0.8980613383
238 1 1 0.0 11.1377152474 25.4602022064 0.0638468052
239 1 1 0.0 15.0371523658 24.3281323872 1.5291993188
240 1 1 0.0 15.0025828878 27.6496138848 3.9850888736
241 1 1 0.0 13.6796794462 25.9436669184 0.7384409689
242 1 1 0.0 0.2822185059 30.0485661216 2.4863610394
243 1 1 0.0 4.966761361 32.0161784976 3.922628875
244 1 1 0.0 5.2812764856 30.488839752 5.4208969016
245 1 1 0.0 9.9781945426 29.2640736768 3.1803852635
246 1 1 0.0 9.3918894832 32.2438216944 3.0222147985
247 1 1 0.0 7.3693736446 30.4726179072 3.3770016868
248 1 1 0.0 7.295670175 33.392986584 4.3790466724
249 1 1 0.0 9.8768690532 32.2658874336 5.1521276008
250 1 1 0.0 7.9176187156 29.9180860656 5.5671627124
251 1 1 0.0 6.4480802746 22.1019444768 0.0342700996
252 1 1 0.0 10.3416103754 29.54525232 5.3597122818
253 1 1 0.0 12.519017613 28.3811418384 3.3463959519
254 1 1 0.0 11.9090509206 31.165085808 2.4994236033
255 1 1 0.0 14.3954018912 29.9247360144 2.2728626283
256 1 1 0.0 14.6961227872 31.3035256512 4.0326470778
257 1 1 0.0 12.1868485608 31.8541279776 4.5058797378
258 1 1 0.0 12.8446419582 29.1246934368 5.4583192006
259 1 1 0.0 16.5840525998 31.8893256864 2.1624013991
260 1 1 0.0 3.8185512524 21.1123447728 6.0334143516
261 1 1 0.0 0.0661790703 17.3230494528 6.3982733762
262 1 1 0.0 5.0219047128 18.9327736752 7.1582984532
263 1 1 0.0 6.1007073646 21.378241968 7.2958715506
264 1 1 0.0 7.9676269896 19.6187595552 6.1653489322
265 1 1 0.0 7.6011905228 17.5318847136 7.2010572056
266 1 1 0.0 10.87260427 20.0241377472 8.9671212176
267 1 1 0.0 10.997289329 22.0188201168 10.8072914504
268 1 1 0.0 15.2426561656 21.242892 6.0098198438
269 1 1 0.0 12.0015830088 19.6502292624 6.2177065882
270 1 1 0.0 13.9969802666 18.82724772 6.8987253048
271 1 1 0.0 14.380231596 20.9765917776 8.6396509294
272 1 1 0.0 12.5376112934 18.4651277808 8.8075981798
273 1 1 0.0 14.09293574 19.9522981488 10.7486240256
274 1 1 0.0 12.5150572262 21.9769724592 8.0223675902
275 1 1 0.0 0.2439601625 22.48220064 7.3646077554
276 1 1 0.0 5.394516698 23.8535678592 5.8259303584
277 1 1 0.0 0.7293354356 25.5381207984 7.9563835186
278 1 1 0.0 3.400898258 26.4529925424 7.6941924874
279 1 1 0.0 3.0301657784 24.6709406064 8.8974116974
280 1 1 0.0 4.410293453 27.7334435424 9.554600968
281 1 1 0.0 0.745270958 25.8824739552 10.1952774394
282 1 1 0.0 3.978510604 24.4181753808 11.1282841568
283 1 1 0.0 2.7705624237 27.1169798544 10.9886301782
284 1 1 0.0 5.5281294086 25.201290816 9.763528153
285 1 1 0.0 13.1147202004 22.554745536 10.6288726688
286 1 1 0.0 16.2731957986 26.7942894096 10.1252322932
287 1 1 0.0 16.5479056796 27.9798946752 8.3413465406
288 1 1 0.0 0.741475028 28.4866677936 9.970273769
289 1 1 0.0 3.466513141 32.2901026512 6.3486007282
290 1 1 0.0 2.1698288025 28.5952500384 8.3772920852
291 1 1 0.0 0.4946019674 31.8964794192 7.9230222942
292 1 1 0.0 5.3936440704 32.438819688 7.50795362
293 1 1 0.0 7.5211772844 32.4424469328 6.385620276
294 1 1 0.0 9.32704654 32.9150970816 10.760001747
295 1 1 0.0 10.793564347 31.6065349344 8.504259401
296 1 1 0.0 15.4581280576 29.0996385792 5.6157277946
297 1 1 0.0 13.9468041796 28.1731462176 10.1078133038
298 1 1 0.0 13.4181932296 32.817497328 9.3107015538
299 1 1 0.0 11.6581704856 28.9600568256 9.3991390048
300 1 1 0.0 13.29414586 30.2490049824 8.5217790782
301 1 1 0.0 15.5425715592 30.3580574256 9.0968742292
302 1 1 0.0 15.9202179344 31.0130437968 11.187589271
303 1 1 0.0 5.3644446084 17.770812672 16.7379706834
304 1 1 0.0 2.1071137282 17.9796479328 16.5850259152
305 1 1 0.0 0.2088046815 19.032287808 16.3576393002
306 1 1 0.0 2.0640294185 17.981058528 11.9044192818
307 1 1 0.0 4.7339376048 17.3309084832 12.2245729232
308 1 1 0.0 0.8083283709 18.9104728368 13.9500261892
309 1 1 0.0 3.3502422258 17.8590420432 14.5873799632
310 1 1 0.0 5.3532347 21.7751230032 16.722733263
311 1 1 0.0 5.8216679082 19.561764792 15.4243305194
312 1 1 0.0 7.4902661298 21.337099608 16.514812956
313 1 1 0.0 10.1668499172 17.7927776544 14.5253562784
314 1 1 0.0 8.6780465438 19.1877219648 16.2800090064
315 1 1 0.0 7.5815899644 18.4898467824 13.8396723604
316 1 1 0.0 8.9794051292 16.9353372864 12.1726851436
317 1 1 0.0 10.1123778174 22.0335306096 15.4121472956
318 1 1 0.0 11.660150679 20.6235063648 13.28072082
319 1 1 0.0 12.0987802984 19.1611221696 11.4398457726
320 1 1 0.0 13.7142489242 21.3927173616 13.10451717
321 1 1 0.0 13.2083598544 22.0990561152 15.3274352932
322 1 1 0.0 14.929986984 18.200540424 15.8477227184
323 1 1 0.0 2.6607422402 24.446454456 16.4276844464
324 1 1 0.0 2.1441198509 26.3211690624 15.3661665336
325 1 1 0.0 4.2548650524 23.6509459344 14.2299047106
326 1 1 0.0 4.8506683276 27.413070504 12.3614076434
327 1 1 0.0 3.2818584283 25.3768091616 13.3006234418
328 1 1 0.0 4.8854727438 27.0373483968 15.2613840964
329 1 1 0.0 5.4121035004 25.1049337296 16.1807643982
330 1 1 0.0 0.0363039932 27.4489735104 6.5857540598
331 1 1 0.0 6.7609172692 26.6484271488 11.4278303618
332 1 1 0.0 6.0824157476 24.0436623552 12.5736910884
333 1 1 0.0 6.7354096932 25.7333538912 13.923780236
334 1 1 0.0 10.3391938682 24.2278457856 15.7412285886
335 1 1 0.0 10.5832610954 23.1029296992 13.2364517506
336 1 1 0.0 12.5755370314 26.906935512 16.693365988
337 1 1 0.0 12.9998689832 24.28070952 15.1800954792
338 1 1 0.0 12.5435854362 24.0646533552 12.7882903528
339 1 1 0.0 14.0403767084 26.4533283984 14.440140837
340 1 1 0.0 12.6326941392 27.4946163408 12.5187491122
341 1 1 0.0 15.4198666936 27.7241067456 12.3579842582
342 1 1 0.0 11.277201413 27.7049629536 15.0308090344
343 1 1 0.0 4.50410092 31.3435596864 16.196303882
344 1 1 0.0 1.3722438199 32.591802096 13.5258620504
345 1 1 0.0 3.7849550898 32.6126587536 14.5006542048
346 1 1 0.0 1.9116384332 30.550637256 15.1923458282
347 1 1 0.0 3.7461231616 33.4187803248 16.5417637238
348 1 1 0.0 10.4509237636 32.039318976 12.4201421934
349 1 1 0.0 10.1765830712 29.9348116944 16.1179687736
350 1 1 0.0 7.6537495544 32.272570968 12.7728515568
351 1 1 0.0 8.4509619922 30.2229089712 12.9787245452
352 1 1 0.0 12.767045227 30.409073952 15.4889049618
353 1 1 0.0 14.8158405814 28.4571796368 15.2080866876
354 1 1 0.0 12.4664585814 29.4955120464 13.3004220662
355 1 1 0.0 15.3250523486 29.8043316384 13.124319104
356 1 1 0.0 12.6558523332 32.7683280096 11.454244128
357 1 1 0.0 5.0154606936 19.509371256 18.3889821026
358 1 1 0.0 0.7946415426 18.021361248 18.7973718194
359 1 1 0.0 0.5328566189 22.3433913552 21.1931708952
360 1 1 0.0 5.9885075928 17.475259392 20.1915622234
361 1 1 0.0 6.0635200038 21.6380601696 19.7644110132
362 1 1 0.0 7.9676605522 17.328994104 17.2585266094
363 1 1 0.0 7.2856349576 19.3752303696 18.6690619996
364 1 1 0.0 8.943090396 21.309391488 18.9898197678
365 1 1 0.0 9.2113226952 17.5487782704 20.6742595366
366 1 1 0.0 10.8953261502 21.48470832 17.745889124
367 1 1 0.0 9.377054814 20.25883392 21.6947639522
368 1 1 0.0 11.1712778474 18.2160569712 22.2122992442
369 1 1 0.0 15.0449724516 21.1162407024 19.9487032498
370 1 1 0.0 13.1714074318 20.6288800608 17.914541189
371 1 1 0.0 12.309419176 21.6765492672 19.7210145714
372 1 1 0.0 0.395122421 25.802808912 20.0538884382
373 1 1 0.0 1.2231285443 23.175071568 19.2467414708
374 1 1 0.0 2.7406380095 25.7568638112 18.5299450226
375 1 1 0.0 2.7245648804 27.4942133136 19.9287670654
376 1 1 0.0 4.5446781034 26.8334838048 17.92578466
377 1 1 0.0 1.6554483949 24.869968872 21.5966604724
378 1 1 0.0 1.162762852 27.6890433792 17.0243603492
379 1 1 0.0 8.4618362746 23.5997278944 16.8656428138
380 1 1 0.0 6.038582992 23.4332776608 18.4481194038
381 1 1 0.0 8.3286263152 24.8487763584 18.6444941764
382 1 1 0.0 8.2304557102 22.7191806336 20.4114979412
383 1 1 0.0 10.8332689028 25.0326575184 18.123971813
384 1 1 0.0 10.7415087544 23.4552426432 19.6297914246
385 1 1 0.0 16.5187397802 23.5999629936 17.4080144298
386 1 1 0.0 15.9427048764 23.7998644848 20.5396063854
387 1 1 0.0 14.3313644504 24.6175059168 19.160720527
388 1 1 0.0 13.738682497 23.4475179552 20.99172817
389 1 1 0.0 0.8621258625 28.6062661152 19.3324603512
390 1 1 0.0 1.6825501944 32.5107600432 18.2367085864
391 1 1 0.0 0.8292378707 30.5218543968 17.699740549
392 1 1 0.0 2.0954440121 30.728640936 19.934841896
393 1 1 0.0 4.8967162148 31.9477310448 19.4859756836
394 1 1 0.0 4.0281496894 28.9659343056 21.2477436828
395 1 1 0.0 4.583812095 31.4392786464 21.5723947126
396 1 1 0.0 5.0932252378 28.7499117264 19.329204779
397 1 1 0.0 14.7277051938 32.6368403856 30.7314604396
398 1 1 0.0 7.0391512232 30.0924960864 18.274667887
399 1 1 0.0 9.2617337204 29.3219416656 19.4912450118
400 1 1 0.0 9.4149469894 31.0222798368 20.837004584
401 1 1 0.0 7.3259436402 32.1870620304 18.8496623502
402 1 1 0.0 10.22484609 32.6647164336 19.1440063522
403 1 1 0.0 6.9014438754 29.5146222528 21.1995813518
404 1 1 0.0 7.1068469874 31.6758556128 21.6003523584
405 1 1 0.0 10.6814317004 28.516189536 17.7425664266
406 1 1 0.0 9.191453636 31.7423551008 17.3459571824
407 1 1 0.0 15.3601252656 31.8431119008 17.4225470356
408 1 1 0.0 13.5547258864 29.4649491504 17.3305855116
409 1 1 0.0 11.9943670498 30.3520456032 19.2517758608
410 1 1 0.0 16.6239585312 29.5735985664 20.7546419636
411 1 1 0.0 12.068775334 31.8546317616 17.5367270008
412 1 1 0.0 1.7062655276 17.4459727488 25.6944861194
413 1 1 0.0 4.2172413778 18.6226106592 25.959832035
414 1 1 0.0 2.0295237095 20.1356083536 26.8336007634
415 1 1 0.0 4.5714610582 19.8803577936 27.7251241072
416 1 1 0.0 10.5254998608 16.9963959072 26.996245123
417 1 1 0.0 7.101678347 19.674612408 24.143424123
418 1 1 0.0 8.365310237 21.5042215536 23.7561452816
419 1 1 0.0 9.0436775082 19.9341619248 25.2339401222
420 1 1 0.0 6.6012264184 17.7925089696 27.1333147814
421 1 1 0.0 8.4283407998 16.7960913888 22.6867401578
422 1 1 0.0 11.285592063 19.769491728 23.766012686
423 1 1 0.0 11.4027926622 18.8647292496 26.397152713
424 1 1 0.0 12.6511871318 17.482312368 24.1902775126
425 1 1 0.0 16.551731816 22.0646644608 22.7274851542
426 1 1 0.0 14.0187959566 17.3201610912 26.4111818798
427 1 1 0.0 2.240988227 26.3503549488 27.1683876984
428 1 1 0.0 0.545727876 26.6606523072 25.6394098928
429 1 1 0.0 2.0935544378 28.226513736 25.9370430296
430 1 1 0.0 0.7061873103 32.733869184 25.9830909168
431 1 1 0.0 1.5991840523 30.149289336 28.11203376
432 1 1 0.0 16.2581597538 31.341746064 27.4868967724
433 1 1 0.0 16.2310076104 33.3636999408 26.5075065418
434 1 1 0.0 3.0662623547 21.0169280832 33.2368078418
435 1 1 0.0 4.0125430804 20.55774576 30.7613647162
436 1 1 0.0 2.0184312702 19.3026183024 28.8695080794
437 1 1 0.0 2.7286192424 18.8382637968 32.5759602478
438 1 1 0.0 3.7634079006 17.483319936 29.4206059714
439 1 1 0.0 4.7923700914 18.5534579088 31.8504375236
440 1 1 0.0 6.2069329936 20.98764144 31.3262568368
441 1 1 0.0 6.3206430824 18.7798584384 29.112367053
442 1 1 0.0 7.7834018782 17.002374144 31.0323827112
443 1 1 0.0 8.6243463838 17.7330960432 29.093068558
444 1 1 0.0 13.5975853266 19.2593600496 28.0780012836
445 1 1 0.0 15.7374695774 17.7792762432 28.1801322754
446 1 1 0.0 11.7396269158 18.3635313408 28.9505617584
447 1 1 0.0 13.8825653632 18.5035161216 30.6467819998
448 1 1 0.0 16.231208986 18.4557238128 31.0535271492
449 1 1 0.0 15.5806986728 20.0772365808 32.9567615074
450 1 1 0.0 13.2122195534 21.2980059696 33.2380832206
451 1 1 0.0 14.6567538574 22.5148458432 31.8182509902
452 1 1 0.0 4.5909609288 22.611001416 31.4711801436
453 1 1 0.0 0.79796424 25.661749392 32.8203966636
454 1 1 0.0 1.653642727 27.038423136 30.5572034204
455 1 1 0.0 10.4464935004 23.581961112 32.5863310912
456 1 1 0.0 15.3192124562 25.101205728 33.009656165
457 1 1 0.0 12.7159293872 24.1556367456 32.2014351944
458 1 1 0.0 0.2476567473 29.3033352432 33.00713897
459 1 1 0.0 2.6951908928 28.386213264 28.838831863
460 1 1 0.0 1.6117163271 30.1077439488 30.7119941316
461 1 1 0.0 2.2550811628 28.3821494064 32.749042576
462 1 1 0.0 3.1498869289 28.8074774448 16.7870392046
463 1 1 0.0 18.6186509744 2.0185348627 4.2206983256
464 1 1 0.0 20.1779693704 0.230105693 4.9031266714
465 1 1 0.0 29.1385794436 11.4199772256 12.6501802538
466 1 1 0.0 20.7805858534 9.1113366672 3.6953429478
467 1 1 0.0 22.80914296 8.4800617296 2.7536166669
468 1 1 0.0 22.5976650174 8.5033365504 5.0525473666
469 1 1 0.0 25.0908627584 9.1385745888 3.9106805894
470 1 1 0.0 25.0024253074 10.3525261008 1.9901279296
471 1 1 0.0 27.5995664206 10.0450835184 3.517696106
472 1 1 0.0 19.6407663948 16.3645836 4.793410532
473 1 1 0.0 20.374008517 11.711466648 3.9465925714
474 1 1 0.0 19.8082773314 13.8474436368 5.1908252786
475 1 1 0.0 18.2277809348 12.3136228704 5.3526305732
476 1 1 0.0 22.0406936704 12.7417385136 5.066442283
477 1 1 0.0 18.5410206806 12.5541629376 0.1121883605
478 1 1 0.0 22.6232732812 11.2334092176 2.5953253765
479 1 1 0.0 26.6606526856 11.387701464 5.1155779294
480 1 1 0.0 29.6470863962 16.5353999616 0.1528001134
481 1 1 0.0 17.699908362 0.883103125 5.9396740098
482 1 1 0.0 21.6439166132 0.804764713 9.938221486
483 1 1 0.0 22.6912039836 1.4314652918 8.0469018508
484 1 1 0.0 22.9220475464 3.3049439482 9.9498341456
485 1 1 0.0 25.242095834 2.8807410274 8.5187248816
486 1 1 0.0 25.8335359712 1.1340916723 9.7750401248
487 1 1 0.0 26.0276956122 4.911222288 7.0261960596
488 1 1 0.0 27.7694938644 3.5640702864 7.4175695382
489 1 1 0.0 25.5123083266 5.4476850768 9.2793205228
490 1 1 0.0 30.189726513 4.8247057824 7.5087255598
491 1 1 0.0 28.2571248798 1.5033149659 10.6990185028
492 1 1 0.0 28.0134939664 5.3479694304 6.0086787154
493 1 1 0.0 32.8691295588 0.089162715 7.3193653706
494 1 1 0.0 18.516822046 10.4482450608 7.1673603552
495 1 1 0.0 19.437108538 9.22596432 9.2007840388
496 1 1 0.0 20.8755680114 9.1747126944 7.5906518664
497 1 1 0.0 21.399178134 9.9091961808 10.7553365456
498 1 1 0.0 23.3074804448 8.8960529712 8.9558777466
499 1 1 0.0 25.7627524478 9.3542948976 10.2254166542
500 1 1 0.0 27.511766659 7.1181656496 8.2083043942
501 1 1 0.0 25.5262368056 10.3477569456 8.1809173126
502 1 1 0.0 23.1094275422 10.7095410288 7.7231570112
503 1 1 0.0 26.9643270904 6.2236131936 10.7947726006
504 1 1 0.0 32.1072921014 7.1885946528 7.1192315868
505 1 1 0.0 29.6378231186 6.9203464656 6.8891264012
506 1 1 0.0 31.4855449364 7.7720772816 9.2378035866
507 1 1 0.0 28.1986588306 10.1075527344 10.8393437334
508 1 1 0.0 30.6926956366 10.4982540192 10.209407294
509 1 1 0.0 28.0593740406 10.4552308656 8.6411612464
510 1 1 0.0 17.504238404 14.7885121488 6.1039293742
511 1 1 0.0 18.8664772128 11.885272128 8.7839029842
512 1 1 0.0 21.1069150132 15.315537384 6.593037144
513 1 1 0.0 17.3464270588 13.409722512 7.7461138296
514 1 1 0.0 19.7003735724 14.313007224 8.8720719344
515 1 1 0.0 18.2153963354 15.8620086816 8.649249833
516 1 1 0.0 21.2876160516 12.7180606656 7.2901994712
517 1 1 0.0 21.3886394776 11.82968796 9.7947749336
518 1 1 0.0 20.7434656178 16.7443695648 8.169472466
519 1 1 0.0 23.8087043132 12.3983257536 9.822598329
520 1 1 0.0 26.3375455354 12.83221812 9.1972264032
521 1 1 0.0 23.4512290606 14.8029875424 10.3889000788
522 1 1 0.0 25.949427629 15.3255794784 11.0713284246
523 1 1 0.0 26.2305815292 16.638138312 9.0834156266
524 1 1 0.0 31.5597854076 16.5651232176 6.3417875204
525 1 1 0.0 28.581742347 13.411065936 10.6082316698
526 1 1 0.0 29.3772095296 12.6737276736 8.6092096512
527 1 1 0.0 31.4651388756 12.566556024 10.1579222656
528 1 1 0.0 25.1557728268 4.3489321728 11.3272768122
529 1 1 0.0 23.5044593442 1.8765517387 11.5096559806
530 1 1 0.0 25.6760938146 1.4760636101 12.2433344166
531 1 1 0.0 27.3780532606 1.0070037619 14.1206920102
532 1 1 0.0 26.409570875 3.2851183685 13.2507829808
533 1 1 0.0 28.8556802882 3.0289979414 12.1730878948
534 1 1 0.0 29.582243453 1.1049494472 13.5341855752
535 1 1 0.0 32.321455052 4.9472260512 13.862528491
536 1 1 0.0 32.5027266546 1.0540806974 15.103337813
537 1 1 0.0 31.4221116224 4.3917202272 16.1854631622
538 1 1 0.0 23.7669860014 10.7116905072 11.2458875072
539 1 1 0.0 25.0378338504 7.9942460256 15.7580098886
540 1 1 0.0 26.8050054282 9.4698965328 14.9200524544
541 1 1 0.0 27.7998008922 8.3007146256 16.4412772994
542 1 1 0.0 31.7321964838 9.9507079824 12.4365878674
543 1 1 0.0 30.3831813394 7.0197598416 15.0912217144
544 1 1 0.0 31.937498908 7.67598888 13.5764408886
545 1 1 0.0 29.8763525168 9.2157542976 14.0890089158
546 1 1 0.0 21.727923801 16.6805569248 13.9466699292
547 1 1 0.0 17.367470809 14.220814752 13.5056573652
548 1 1 0.0 21.2537849508 16.0756802688 11.3994699648
549 1 1 0.0 26.3140181528 12.11516556 11.296667721
550 1 1 0.0 23.726576631 14.9054236224 12.6182286586
551 1 1 0.0 30.4594691292 12.2951172048 14.8992100798
552 1 1 0.0 30.2883334318 13.2127093824 12.4756211712
553 1 1 0.0 28.264911403 11.4903726432 15.1315639596
554 1 1 0.0 32.571496422 11.3745694944 15.1177026058
555 1 1 0.0 32.76716638 11.9320904544 12.7145868832
556 1 1 0.0 18.8804392544 0.3064894231 21.1569904124
557 1 1 0.0 25.1457040468 2.379287868 19.6949028686
558 1 1 0.0 27.8604485104 3.3569176642 20.9681336622
559 1 1 0.0 24.1467468204 3.4991829072 21.2902339344
560 1 1 0.0 26.5882245948 4.5166922448 18.825430153
561 1 1 0.0 23.5252345936 4.2028683984 18.5957948438
562 1 1 0.0 26.5381827582 1.8267039912 21.8675106544
563 1 1 0.0 25.3663445792 5.6649167376 16.9328015764
564 1 1 0.0 30.5933839032 3.3918433296 18.4909452814
565 1 1 0.0 33.2831242298 4.369822416 17.4190565252
566 1 1 0.0 23.2827783712 6.3540932496 17.1416951988
567 1 1 0.0 23.4377368954 5.8891677888 19.9665921156
568 1 1 0.0 26.082838964 5.7891162864 20.5844795816
569 1 1 0.0 24.4770028044 8.1925018224 19.260065823
570 1 1 0.0 26.4362867046 7.4782704528 18.5618966178
571 1 1 0.0 26.5078757304 9.7902024 18.4859780166
572 1 1 0.0 23.6781793618 9.21588864 17.0152984472